 Entering Gaussian System, Link 0=g09
 Initial command:
 /panfs/roc/msisoft/gaussian/g09.e01_mesabi/g09/l1.exe "/scratch/graha682/3881878.mesabim3.msi.umn.edu/Gau-12410.inp" -scrdir="/scratch/graha682/3881878.mesabim3.msi.umn.edu/"
 Entering Link 1 = /panfs/roc/msisoft/gaussian/g09.e01_mesabi/g09/l1.exe PID=     12411.
  
 Copyright (c) 1988,1990,1992,1993,1995,1998,2003,2009,2015,
            Gaussian, Inc.  All Rights Reserved.
  
 This is part of the Gaussian(R) 09 program.  It is based on
 the Gaussian(R) 03 system (copyright 2003, Gaussian, Inc.),
 the Gaussian(R) 98 system (copyright 1998, Gaussian, Inc.),
 the Gaussian(R) 94 system (copyright 1995, Gaussian, Inc.),
 the Gaussian 92(TM) system (copyright 1992, Gaussian, Inc.),
 the Gaussian 90(TM) system (copyright 1990, Gaussian, Inc.),
 the Gaussian 88(TM) system (copyright 1988, Gaussian, Inc.),
 the Gaussian 86(TM) system (copyright 1986, Carnegie Mellon
 University), and the Gaussian 82(TM) system (copyright 1983,
 Carnegie Mellon University). Gaussian is a federally registered
 trademark of Gaussian, Inc.
  
 This software contains proprietary and confidential information,
 including trade secrets, belonging to Gaussian, Inc.
  
 This software is provided under written license and may be
 used, copied, transmitted, or stored only in accord with that
 written license.
  
 The following legend is applicable only to US Government
 contracts under FAR:
  
                    RESTRICTED RIGHTS LEGEND
  
 Use, reproduction and disclosure by the US Government is
 subject to restrictions as set forth in subparagraphs (a)
 and (c) of the Commercial Computer Software - Restricted
 Rights clause in FAR 52.227-19.
  
 Gaussian, Inc.
 340 Quinnipiac St., Bldg. 40, Wallingford CT 06492
  
  
 ---------------------------------------------------------------
 Warning -- This program may not be used in any manner that
 competes with the business of Gaussian, Inc. or will provide
 assistance to any competitor of Gaussian, Inc.  The licensee
 of this program is prohibited from giving any competitor of
 Gaussian, Inc. access to this program.  By using this program,
 the user acknowledges that Gaussian, Inc. is engaged in the
 business of creating and licensing software in the field of
 computational chemistry and represents and warrants to the
 licensee that it is not a competitor of Gaussian, Inc. and that
 it will not use this program in any manner prohibited above.
 ---------------------------------------------------------------
  

 Cite this work as:
 Gaussian 09, Revision E.01,
 M. J. Frisch, G. W. Trucks, H. B. Schlegel, G. E. Scuseria, 
 M. A. Robb, J. R. Cheeseman, G. Scalmani, V. Barone, B. Mennucci, 
 G. A. Petersson, H. Nakatsuji, M. Caricato, X. Li, H. P. Hratchian, 
 A. F. Izmaylov, J. Bloino, G. Zheng, J. L. Sonnenberg, M. Hada, 
 M. Ehara, K. Toyota, R. Fukuda, J. Hasegawa, M. Ishida, T. Nakajima, 
 Y. Honda, O. Kitao, H. Nakai, T. Vreven, J. A. Montgomery, Jr., 
 J. E. Peralta, F. Ogliaro, M. Bearpark, J. J. Heyd, E. Brothers, 
 K. N. Kudin, V. N. Staroverov, T. Keith, R. Kobayashi, J. Normand, 
 K. Raghavachari, A. Rendell, J. C. Burant, S. S. Iyengar, J. Tomasi, 
 M. Cossi, N. Rega, J. M. Millam, M. Klene, J. E. Knox, J. B. Cross, 
 V. Bakken, C. Adamo, J. Jaramillo, R. Gomperts, R. E. Stratmann, 
 O. Yazyev, A. J. Austin, R. Cammi, C. Pomelli, J. W. Ochterski, 
 R. L. Martin, K. Morokuma, V. G. Zakrzewski, G. A. Voth, 
 P. Salvador, J. J. Dannenberg, S. Dapprich, A. D. Daniels, 
 O. Farkas, J. B. Foresman, J. V. Ortiz, J. Cioslowski, 
 and D. J. Fox, Gaussian, Inc., Wallingford CT, 2013.
 
 ******************************************
 Gaussian 09:  ES64L-G09RevE.01 30-Nov-2015
                 6-Jul-2017 
 ******************************************
 %LindaWorkers=in-cn0612
 %NProcShared=24
 Will use up to   24 processors via shared memory.
 %Mem=59800mb
 %chk=20170630_augccpVTZ_ccsdt_chloroheptane.chk
 SetLPE:  input flags=" -workerwait 900 -opt "Tsnet.Node.lindarsharg: ssh " "
 SetLPE:    new flags=" -workerwait 900 -opt "Tsnet.Node.lindarsharg: ssh "  -nodelist 'in-cn0612'"
 Will use up to    1 processors via Linda.
 --------------------------------------------
 # opt freq aug-cc-pvtz geom=connectivity m06
 --------------------------------------------
 1/14=-1,18=20,19=15,26=3,38=1,57=2/1,3;
 2/9=110,12=2,17=6,18=5,40=1/2;
 3/5=16,6=1,7=10,11=2,16=1,25=1,30=1,71=1,74=-54/1,2,3;
 4//1;
 5/5=2,38=5/2;
 6/7=2,8=2,9=2,10=2,28=1/1;
 7//1,2,3,16;
 1/14=-1,18=20,19=15,26=3/3(2);
 2/9=110/2;
 99//99;
 2/9=110/2;
 3/5=16,6=1,7=10,11=2,16=1,25=1,30=1,71=1,74=-54/1,2,3;
 4/5=5,16=3,69=1/1;
 5/5=2,38=5/2;
 7//1,2,3,16;
 1/14=-1,18=20,19=15,26=3/3(-5);
 2/9=110/2;
 6/7=2,8=2,9=2,10=2,19=2,28=1/1;
 99/9=1/99;
 ---------------
 1chloro-heptane
 ---------------
 Symbolic Z-matrix:
 Charge =  0 Multiplicity = 1
 C                    -5.5638    1.88427   0. 
 H                    -5.20713   2.38867   0.87365 
 H                    -5.20713   2.38867  -0.87365 
 C                    -5.05048   0.43234   0. 
 H                    -5.40715  -0.07206   0.87365 
 H                    -5.40716  -0.07206  -0.87365 
 C                    -3.51048   0.43232  0. 
 H                    -3.15381   0.93672  -0.87366 
 H                    -3.15381   0.93672   0.87365 
 C                    -2.99717  -1.01961  0. 
 H                    -3.35384  -1.52401   0.87365 
 H                    -3.35384  -1.52401  -0.87365 
 Cl                   -7.3238    1.88429   0. 
 C                    -1.45717  -1.01963  -0.00001 
 H                    -1.1005   -0.51693  -0.87464 
 H                    -1.10049  -0.51353   0.87266 
 C                    -0.94385  -2.47156   0.00281 
 H                    -1.30097  -2.97781  -0.86958 
 H                    -1.30007  -2.9741    0.87772 
 C                     0.59615  -2.47158   0.00202 
 H                     0.95327  -1.96531   0.87441 
 H                     0.9528   -3.48038   0.00399 
 H                     0.95237  -1.96904  -0.87289 
 

 GradGradGradGradGradGradGradGradGradGradGradGradGradGradGradGradGradGrad
 Berny optimization.
 Initialization pass.
                           ----------------------------
                           !    Initial Parameters    !
                           ! (Angstroms and Degrees)  !
 --------------------------                            --------------------------
 ! Name  Definition              Value          Derivative Info.                !
 --------------------------------------------------------------------------------
 ! R1    R(1,2)                  1.07           estimate D2E/DX2                !
 ! R2    R(1,3)                  1.07           estimate D2E/DX2                !
 ! R3    R(1,4)                  1.54           estimate D2E/DX2                !
 ! R4    R(1,13)                 1.76           estimate D2E/DX2                !
 ! R5    R(4,5)                  1.07           estimate D2E/DX2                !
 ! R6    R(4,6)                  1.07           estimate D2E/DX2                !
 ! R7    R(4,7)                  1.54           estimate D2E/DX2                !
 ! R8    R(7,8)                  1.07           estimate D2E/DX2                !
 ! R9    R(7,9)                  1.07           estimate D2E/DX2                !
 ! R10   R(7,10)                 1.54           estimate D2E/DX2                !
 ! R11   R(10,11)                1.07           estimate D2E/DX2                !
 ! R12   R(10,12)                1.07           estimate D2E/DX2                !
 ! R13   R(10,14)                1.54           estimate D2E/DX2                !
 ! R14   R(14,15)                1.07           estimate D2E/DX2                !
 ! R15   R(14,16)                1.07           estimate D2E/DX2                !
 ! R16   R(14,17)                1.54           estimate D2E/DX2                !
 ! R17   R(17,18)                1.07           estimate D2E/DX2                !
 ! R18   R(17,19)                1.07           estimate D2E/DX2                !
 ! R19   R(17,20)                1.54           estimate D2E/DX2                !
 ! R20   R(20,21)                1.07           estimate D2E/DX2                !
 ! R21   R(20,22)                1.07           estimate D2E/DX2                !
 ! R22   R(20,23)                1.07           estimate D2E/DX2                !
 ! A1    A(2,1,3)              109.4713         estimate D2E/DX2                !
 ! A2    A(2,1,4)              109.4712         estimate D2E/DX2                !
 ! A3    A(2,1,13)             109.4712         estimate D2E/DX2                !
 ! A4    A(3,1,4)              109.4712         estimate D2E/DX2                !
 ! A5    A(3,1,13)             109.4712         estimate D2E/DX2                !
 ! A6    A(4,1,13)             109.4712         estimate D2E/DX2                !
 ! A7    A(1,4,5)              109.4712         estimate D2E/DX2                !
 ! A8    A(1,4,6)              109.4712         estimate D2E/DX2                !
 ! A9    A(1,4,7)              109.4712         estimate D2E/DX2                !
 ! A10   A(5,4,6)              109.4712         estimate D2E/DX2                !
 ! A11   A(5,4,7)              109.4713         estimate D2E/DX2                !
 ! A12   A(6,4,7)              109.4712         estimate D2E/DX2                !
 ! A13   A(4,7,8)              109.4712         estimate D2E/DX2                !
 ! A14   A(4,7,9)              109.4712         estimate D2E/DX2                !
 ! A15   A(4,7,10)             109.4712         estimate D2E/DX2                !
 ! A16   A(8,7,9)              109.4712         estimate D2E/DX2                !
 ! A17   A(8,7,10)             109.4713         estimate D2E/DX2                !
 ! A18   A(9,7,10)             109.4712         estimate D2E/DX2                !
 ! A19   A(7,10,11)            109.4712         estimate D2E/DX2                !
 ! A20   A(7,10,12)            109.4712         estimate D2E/DX2                !
 ! A21   A(7,10,14)            109.4712         estimate D2E/DX2                !
 ! A22   A(11,10,12)           109.4713         estimate D2E/DX2                !
 ! A23   A(11,10,14)           109.4712         estimate D2E/DX2                !
 ! A24   A(12,10,14)           109.4712         estimate D2E/DX2                !
 ! A25   A(10,14,15)           109.4712         estimate D2E/DX2                !
 ! A26   A(10,14,16)           109.4712         estimate D2E/DX2                !
 ! A27   A(10,14,17)           109.4712         estimate D2E/DX2                !
 ! A28   A(15,14,16)           109.4712         estimate D2E/DX2                !
 ! A29   A(15,14,17)           109.4713         estimate D2E/DX2                !
 ! A30   A(16,14,17)           109.4712         estimate D2E/DX2                !
 ! A31   A(14,17,18)           109.4712         estimate D2E/DX2                !
 ! A32   A(14,17,19)           109.4712         estimate D2E/DX2                !
 ! A33   A(14,17,20)           109.4712         estimate D2E/DX2                !
 ! A34   A(18,17,19)           109.4712         estimate D2E/DX2                !
 ! A35   A(18,17,20)           109.4713         estimate D2E/DX2                !
 ! A36   A(19,17,20)           109.4712         estimate D2E/DX2                !
 ! A37   A(17,20,21)           109.4712         estimate D2E/DX2                !
 ! A38   A(17,20,22)           109.4712         estimate D2E/DX2                !
 ! A39   A(17,20,23)           109.4712         estimate D2E/DX2                !
 ! A40   A(21,20,22)           109.4713         estimate D2E/DX2                !
 ! A41   A(21,20,23)           109.4712         estimate D2E/DX2                !
 ! A42   A(22,20,23)           109.4712         estimate D2E/DX2                !
 ! D1    D(2,1,4,5)             59.9999         estimate D2E/DX2                !
 ! D2    D(2,1,4,6)            179.9999         estimate D2E/DX2                !
 ! D3    D(2,1,4,7)            -60.0002         estimate D2E/DX2                !
 ! D4    D(3,1,4,5)            179.9999         estimate D2E/DX2                !
 ! D5    D(3,1,4,6)            -60.0001         estimate D2E/DX2                !
 ! D6    D(3,1,4,7)             59.9999         estimate D2E/DX2                !
 ! D7    D(13,1,4,5)           -60.0001         estimate D2E/DX2                !
 ! D8    D(13,1,4,6)            59.9999         estimate D2E/DX2                !
 ! D9    D(13,1,4,7)           179.9999         estimate D2E/DX2                !
 ! D10   D(1,4,7,8)            -60.0            estimate D2E/DX2                !
 ! D11   D(1,4,7,9)             60.0            estimate D2E/DX2                !
 ! D12   D(1,4,7,10)           179.9999         estimate D2E/DX2                !
 ! D13   D(5,4,7,8)            180.0            estimate D2E/DX2                !
 ! D14   D(5,4,7,9)            -60.0            estimate D2E/DX2                !
 ! D15   D(5,4,7,10)            60.0            estimate D2E/DX2                !
 ! D16   D(6,4,7,8)             60.0            estimate D2E/DX2                !
 ! D17   D(6,4,7,9)            180.0            estimate D2E/DX2                !
 ! D18   D(6,4,7,10)           -60.0001         estimate D2E/DX2                !
 ! D19   D(4,7,10,11)          -60.0001         estimate D2E/DX2                !
 ! D20   D(4,7,10,12)           59.9999         estimate D2E/DX2                !
 ! D21   D(4,7,10,14)          179.9999         estimate D2E/DX2                !
 ! D22   D(8,7,10,11)          179.9999         estimate D2E/DX2                !
 ! D23   D(8,7,10,12)          -60.0            estimate D2E/DX2                !
 ! D24   D(8,7,10,14)           59.9999         estimate D2E/DX2                !
 ! D25   D(9,7,10,11)           59.9999         estimate D2E/DX2                !
 ! D26   D(9,7,10,12)          179.9999         estimate D2E/DX2                !
 ! D27   D(9,7,10,14)          -60.0001         estimate D2E/DX2                !
 ! D28   D(7,10,14,15)         -60.1113         estimate D2E/DX2                !
 ! D29   D(7,10,14,16)          59.8887         estimate D2E/DX2                !
 ! D30   D(7,10,14,17)         179.8887         estimate D2E/DX2                !
 ! D31   D(11,10,14,15)        179.8888         estimate D2E/DX2                !
 ! D32   D(11,10,14,16)        -60.1112         estimate D2E/DX2                !
 ! D33   D(11,10,14,17)         59.8887         estimate D2E/DX2                !
 ! D34   D(12,10,14,15)         59.8887         estimate D2E/DX2                !
 ! D35   D(12,10,14,16)        179.8887         estimate D2E/DX2                !
 ! D36   D(12,10,14,17)        -60.1113         estimate D2E/DX2                !
 ! D37   D(10,14,17,18)         59.969          estimate D2E/DX2                !
 ! D38   D(10,14,17,19)        -60.031          estimate D2E/DX2                !
 ! D39   D(10,14,17,20)        179.969          estimate D2E/DX2                !
 ! D40   D(15,14,17,18)        -60.031          estimate D2E/DX2                !
 ! D41   D(15,14,17,19)        179.969          estimate D2E/DX2                !
 ! D42   D(15,14,17,20)         59.969          estimate D2E/DX2                !
 ! D43   D(16,14,17,18)        179.969          estimate D2E/DX2                !
 ! D44   D(16,14,17,19)         59.969          estimate D2E/DX2                !
 ! D45   D(16,14,17,20)        -60.031          estimate D2E/DX2                !
 ! D46   D(14,17,20,21)         59.9994         estimate D2E/DX2                !
 ! D47   D(14,17,20,22)        179.9994         estimate D2E/DX2                !
 ! D48   D(14,17,20,23)        -60.0006         estimate D2E/DX2                !
 ! D49   D(18,17,20,21)        179.9994         estimate D2E/DX2                !
 ! D50   D(18,17,20,22)        -60.0006         estimate D2E/DX2                !
 ! D51   D(18,17,20,23)         59.9994         estimate D2E/DX2                !
 ! D52   D(19,17,20,21)        -60.0006         estimate D2E/DX2                !
 ! D53   D(19,17,20,22)         59.9994         estimate D2E/DX2                !
 ! D54   D(19,17,20,23)        179.9994         estimate D2E/DX2                !
 --------------------------------------------------------------------------------
 Trust Radius=3.00D-01 FncErr=1.00D-07 GrdErr=1.00D-06
 Number of steps in this run=    128 maximum allowed number of steps=    138.
 GradGradGradGradGradGradGradGradGradGradGradGradGradGradGradGradGradGrad

                          Input orientation:                          
 ---------------------------------------------------------------------
 Center     Atomic      Atomic             Coordinates (Angstroms)
 Number     Number       Type             X           Y           Z
 ---------------------------------------------------------------------
      1          6           0       -5.563798    1.884273    0.000000
      2          1           0       -5.207126    2.388671    0.873652
      3          1           0       -5.207126    2.388671   -0.873652
      4          6           0       -5.050483    0.432341    0.000000
      5          1           0       -5.407154   -0.072057    0.873653
      6          1           0       -5.407157   -0.072059   -0.873650
      7          6           0       -3.510483    0.432323   -0.000004
      8          1           0       -3.153813    0.936720   -0.873657
      9          1           0       -3.153808    0.936723    0.873646
     10          6           0       -2.997167   -1.019610   -0.000002
     11          1           0       -3.353836   -1.524006    0.873652
     12          1           0       -3.353843   -1.524010   -0.873651
     13         17           0       -7.323798    1.884295    0.000000
     14          6           0       -1.457167   -1.019627   -0.000008
     15          1           0       -1.100498   -0.516928   -0.874640
     16          1           0       -1.100491   -0.513531    0.872660
     17          6           0       -0.943851   -2.471556    0.002813
     18          1           0       -1.300972   -2.977809   -0.869581
     19          1           0       -1.300075   -2.974097    0.877717
     20          6           0        0.596149   -2.471575    0.002023
     21          1           0        0.953270   -1.965313    0.874412
     22          1           0        0.952804   -3.480383    0.003993
     23          1           0        0.952373   -1.969043   -0.872886
 ---------------------------------------------------------------------
                    Distance matrix (angstroms):
                    1          2          3          4          5
     1  C    0.000000
     2  H    1.070000   0.000000
     3  H    1.070000   1.747303   0.000000
     4  C    1.540000   2.148263   2.148263   0.000000
     5  H    2.148263   2.468844   3.024610   1.070000   0.000000
     6  H    2.148263   3.024610   2.468847   1.070000   1.747303
     7  C    2.514809   2.732978   2.732976   1.540000   2.148263
     8  H    2.732977   3.062245   2.514808   2.148263   3.024610
     9  H    2.732977   2.514810   3.062240   2.148263   2.468847
    10  C    3.875581   4.154945   4.154944   2.514809   2.732977
    11  H    4.154945   4.329402   4.668704   2.732978   2.514810
    12  H    4.154945   4.668704   4.329403   2.732977   3.062242
    13  Cl   1.760000   2.344774   2.344774   2.697431   2.874736
    14  C    5.029618   5.142175   5.142173   3.875581   4.154945
    15  H    5.143132   5.325731   5.030596   4.155537   4.669231
    16  H    5.141217   5.028640   5.323234   4.154352   4.329231
    17  C    6.349581   6.523472   6.524225   5.029618   5.141696
    18  H    6.524393   6.862653   6.637557   5.142385   5.323814
    19  H    6.523304   6.635085   6.862334   5.141962   5.028912
    20  C    7.544427   7.619694   7.620157   6.349581   6.523578
    21  H    7.619455   7.543716   7.743602   6.523679   6.636219
    22  H    8.440714   8.552593   8.553408   7.165813   7.267879
    23  H    7.620398   7.744643   7.545137   6.524021   6.862400
                    6          7          8          9         10
     6  H    0.000000
     7  C    2.148263   0.000000
     8  H    2.468845   1.070000   0.000000
     9  H    3.024610   1.070000   1.747303   0.000000
    10  C    2.732978   1.540000   2.148263   2.148263   0.000000
    11  H    3.062245   2.148263   3.024610   2.468845   1.070000
    12  H    2.514809   2.148263   2.468847   3.024610   1.070000
    13  Cl   2.874734   4.080392   4.364626   4.364627   5.210796
    14  C    4.154944   2.514809   2.732977   2.732977   1.540000
    15  H    4.329576   2.733878   2.515789   3.063606   2.148263
    16  H    4.668176   2.732076   3.060878   2.513831   2.148263
    17  C    5.142653   3.875580   4.155536   4.154350   2.514809
    18  H    5.030324   4.155370   4.330886   4.668555   2.732726
    19  H    5.325152   4.154515   4.668849   4.327916   2.733228
    20  C    6.524122   5.029618   5.142519   5.141828   3.875581
    21  H    6.862592   5.141823   5.324065   5.028906   4.155106
    22  H    7.268841   5.935504   6.094700   6.093553   4.653783
    23  H    6.636428   5.142525   5.030330   5.324901   4.154782
                   11         12         13         14         15
    11  H    0.000000
    12  H    1.747303   0.000000
    13  Cl   5.304751   5.304749   0.000000
    14  C    2.148263   2.148263   6.546001   0.000000
    15  H    3.024609   2.468153   6.727580   1.070000   0.000000
    16  H    2.469539   3.024610   6.726117   1.070000   1.747303
    17  C    2.732076   2.733879   7.725101   1.540000   2.148263
    18  H    3.060499   2.515517   7.789138   2.148263   2.469039
    19  H    2.514104   3.063986   7.788428   2.148263   3.024610
    20  C    4.154517   4.155372   9.038760   2.514809   2.732727
    21  H    4.329655   4.669228   9.170274   2.732972   3.061857
    22  H    4.809456   4.810911   9.863160   3.444314   3.710810
    23  H    4.668179   4.329151   9.170886   2.732982   2.514542
                   16         17         18         19         20
    16  H    0.000000
    17  C    2.148263   0.000000
    18  H    3.024610   1.070000   0.000000
    19  H    2.468653   1.070000   1.747303   0.000000
    20  C    2.733228   1.540000   2.148263   2.148263   0.000000
    21  H    2.515076   2.148263   3.024610   2.468849   1.070000
    22  H    3.711175   2.148263   2.468850   2.468842   1.070000
    23  H    3.062629   2.148263   2.468843   3.024610   1.070000
                   21         22         23
    21  H    0.000000
    22  H    1.747303   0.000000
    23  H    1.747303   1.747303   0.000000
 Stoichiometry    C7H15Cl
 Framework group  C1[X(C7H15Cl)]
 Deg. of freedom    63
 Full point group                 C1      NOp   1
 Largest Abelian subgroup         C1      NOp   1
 Largest concise Abelian subgroup C1      NOp   1
                         Standard orientation:                         
 ---------------------------------------------------------------------
 Center     Atomic      Atomic             Coordinates (Angstroms)
 Number     Number       Type             X           Y           Z
 ---------------------------------------------------------------------
      1          6           0        2.601744    0.674582   -0.000531
      2          1           0        2.563582    1.290570   -0.874603
      3          1           0        2.563992    1.291788    0.872700
      4          6           0        1.401345   -0.290115    0.000422
      5          1           0        1.439096   -0.907319   -0.872809
      6          1           0        1.439507   -0.906106    0.874493
      7          6           0        0.091686    0.520067    0.000169
      8          1           0        0.053936    1.137271    0.873401
      9          1           0        0.053524    1.136058   -0.873901
     10          6           0       -1.108713   -0.444630    0.001121
     11          1           0       -1.070963   -1.061832   -0.872113
     12          1           0       -1.070550   -1.060622    0.875190
     13         17           0        4.098497   -0.251340   -0.000237
     14          6           0       -2.418371    0.365553    0.000869
     15          1           0       -2.457014    0.981313    0.875081
     16          1           0       -2.455642    0.982988   -0.872221
     17          6           0       -3.618770   -0.599143   -0.000999
     18          1           0       -3.581203   -1.216946    0.871817
     19          1           0       -3.580423   -1.214534   -0.875484
     20          6           0       -4.928429    0.211039   -0.000466
     21          1           0       -4.965990    0.828849   -0.873278
     22          1           0       -5.762472   -0.459237   -0.001774
     23          1           0       -4.966781    0.826423    0.874023
 ---------------------------------------------------------------------
 Rotational constants (GHZ):     10.5565092      0.3681706      0.3612402
 Standard basis: Aug-CC-pVTZ (5D, 7F)
 There are   819 symmetry adapted cartesian basis functions of A   symmetry.
 There are   717 symmetry adapted basis functions of A   symmetry.
   717 basis functions,  1023 primitive gaussians,   819 cartesian basis functions
    37 alpha electrons       37 beta electrons
       nuclear repulsion energy       425.8953183220 Hartrees.
 NAtoms=   23 NActive=   23 NUniq=   23 SFac= 1.00D+00 NAtFMM=   60 NAOKFM=F Big=F
 Integral buffers will be    131072 words long.
 Raffenetti 2 integral format.
 Two-electron integral symmetry is turned on.
 One-electron integrals computed using PRISM.
 NBasis=   717 RedAO= T EigKep=  3.19D-06  NBF=   717
 NBsUse=   717 1.00D-06 EigRej= -1.00D+00 NBFU=   717
 ExpMin= 2.53D-02 ExpMax= 4.56D+05 ExpMxC= 1.44D+03 IAcc=3 IRadAn=         5 AccDes= 0.00D+00
 Harris functional with IExCor= 1009 and IRadAn=       5 diagonalized for initial guess.
 HarFok:  IExCor= 1009 AccDes= 0.00D+00 IRadAn=         5 IDoV= 1 UseB2=F ITyADJ=14
 ICtDFT=  3500011 ScaDFX=  1.000000  1.000000  1.000000  1.000000
 FoFCou: FMM=F IPFlag=           0 FMFlag=      100000 FMFlg1=           0
         NFxFlg=           0 DoJE=T BraDBF=F KetDBF=T FulRan=T
         wScrn=  0.000000 ICntrl=     500 IOpCl=  0 I1Cent=   200000004 NGrid=           0
         NMat0=    1 NMatS0=      1 NMatT0=    0 NMatD0=    1 NMtDS0=    0 NMtDT0=    0
 Petite list used in FoFCou.
 Requested convergence on RMS density matrix=1.00D-08 within 128 cycles.
 Requested convergence on MAX density matrix=1.00D-06.
 Requested convergence on             energy=1.00D-06.
 No special actions if energy rises.
 SCF Done:  E(RM06) =  -735.849860840     A.U. after   13 cycles
            NFock= 13  Conv=0.68D-08     -V/T= 2.0039

 **********************************************************************

            Population analysis using the SCF density.

 **********************************************************************

 Orbital symmetries:
       Occupied  (A) (A) (A) (A) (A) (A) (A) (A) (A) (A) (A) (A)
                 (A) (A) (A) (A) (A) (A) (A) (A) (A) (A) (A) (A)
                 (A) (A) (A) (A) (A) (A) (A) (A) (A) (A) (A) (A)
                 (A)
       Virtual   (A) (A) (A) (A) (A) (A) (A) (A) (A) (A) (A) (A)
                 (A) (A) (A) (A) (A) (A) (A) (A) (A) (A) (A) (A)
                 (A) (A) (A) (A) (A) (A) (A) (A) (A) (A) (A) (A)
                 (A) (A) (A) (A) (A) (A) (A) (A) (A) (A) (A) (A)
                 (A) (A) (A) (A) (A) (A) (A) (A) (A) (A) (A) (A)
                 (A) (A) (A) (A) (A) (A) (A) (A) (A) (A) (A) (A)
                 (A) (A) (A) (A) (A) (A) (A) (A) (A) (A) (A) (A)
                 (A) (A) (A) (A) (A) (A) (A) (A) (A) (A) (A) (A)
                 (A) (A) (A) (A) (A) (A) (A) (A) (A) (A) (A) (A)
                 (A) (A) (A) (A) (A) (A) (A) (A) (A) (A) (A) (A)
                 (A) (A) (A) (A) (A) (A) (A) (A) (A) (A) (A) (A)
                 (A) (A) (A) (A) (A) (A) (A) (A) (A) (A) (A) (A)
                 (A) (A) (A) (A) (A) (A) (A) (A) (A) (A) (A) (A)
                 (A) (A) (A) (A) (A) (A) (A) (A) (A) (A) (A) (A)
                 (A) (A) (A) (A) (A) (A) (A) (A) (A) (A) (A) (A)
                 (A) (A) (A) (A) (A) (A) (A) (A) (A) (A) (A) (A)
                 (A) (A) (A) (A) (A) (A) (A) (A) (A) (A) (A) (A)
                 (A) (A) (A) (A) (A) (A) (A) (A) (A) (A) (A) (A)
                 (A) (A) (A) (A) (A) (A) (A) (A) (A) (A) (A) (A)
                 (A) (A) (A) (A) (A) (A) (A) (A) (A) (A) (A) (A)
                 (A) (A) (A) (A) (A) (A) (A) (A) (A) (A) (A) (A)
                 (A) (A) (A) (A) (A) (A) (A) (A) (A) (A) (A) (A)
                 (A) (A) (A) (A) (A) (A) (A) (A) (A) (A) (A) (A)
                 (A) (A) (A) (A) (A) (A) (A) (A) (A) (A) (A) (A)
                 (A) (A) (A) (A) (A) (A) (A) (A) (A) (A) (A) (A)
                 (A) (A) (A) (A) (A) (A) (A) (A) (A) (A) (A) (A)
                 (A) (A) (A) (A) (A) (A) (A) (A) (A) (A) (A) (A)
                 (A) (A) (A) (A) (A) (A) (A) (A) (A) (A) (A) (A)
                 (A) (A) (A) (A) (A) (A) (A) (A) (A) (A) (A) (A)
                 (A) (A) (A) (A) (A) (A) (A) (A) (A) (A) (A) (A)
                 (A) (A) (A) (A) (A) (A) (A) (A) (A) (A) (A) (A)
                 (A) (A) (A) (A) (A) (A) (A) (A) (A) (A) (A) (A)
                 (A) (A) (A) (A) (A) (A) (A) (A) (A) (A) (A) (A)
                 (A) (A) (A) (A) (A) (A) (A) (A) (A) (A) (A) (A)
                 (A) (A) (A) (A) (A) (A) (A) (A) (A) (A) (A) (A)
                 (A) (A) (A) (A) (A) (A) (A) (A) (A) (A) (A) (A)
                 (A) (A) (A) (A) (A) (A) (A) (A) (A) (A) (A) (A)
                 (A) (A) (A) (A) (A) (A) (A) (A) (A) (A) (A) (A)
                 (A) (A) (A) (A) (A) (A) (A) (A) (A) (A) (A) (A)
                 (A) (A) (A) (A) (A) (A) (A) (A) (A) (A) (A) (A)
                 (A) (A) (A) (A) (A) (A) (A) (A) (A) (A) (A) (A)
                 (A) (A) (A) (A) (A) (A) (A) (A) (A) (A) (A) (A)
                 (A) (A) (A) (A) (A) (A) (A) (A) (A) (A) (A) (A)
                 (A) (A) (A) (A) (A) (A) (A) (A) (A) (A) (A) (A)
                 (A) (A) (A) (A) (A) (A) (A) (A) (A) (A) (A) (A)
                 (A) (A) (A) (A) (A) (A) (A) (A) (A) (A) (A) (A)
                 (A) (A) (A) (A) (A) (A) (A) (A) (A) (A) (A) (A)
                 (A) (A) (A) (A) (A) (A) (A) (A) (A) (A) (A) (A)
                 (A) (A) (A) (A) (A) (A) (A) (A) (A) (A) (A) (A)
                 (A) (A) (A) (A) (A) (A) (A) (A) (A) (A) (A) (A)
                 (A) (A) (A) (A) (A) (A) (A) (A) (A) (A) (A) (A)
                 (A) (A) (A) (A) (A) (A) (A) (A) (A) (A) (A) (A)
                 (A) (A) (A) (A) (A) (A) (A) (A) (A) (A) (A) (A)
                 (A) (A) (A) (A) (A) (A) (A) (A) (A) (A) (A) (A)
                 (A) (A) (A) (A) (A) (A) (A) (A) (A) (A) (A) (A)
                 (A) (A) (A) (A) (A) (A) (A) (A) (A) (A) (A) (A)
                 (A) (A) (A) (A) (A) (A) (A) (A)
 The electronic state is 1-A.
 Alpha  occ. eigenvalues -- -101.72448 -10.29120 -10.24208 -10.23799 -10.23356
 Alpha  occ. eigenvalues --  -10.23080 -10.23037 -10.21979  -9.57430  -7.28643
 Alpha  occ. eigenvalues --   -7.27719  -7.27719  -0.87976  -0.82693  -0.79190
 Alpha  occ. eigenvalues --   -0.74061  -0.68040  -0.62679  -0.60525  -0.59653
 Alpha  occ. eigenvalues --   -0.51504  -0.49090  -0.45530  -0.45483  -0.44212
 Alpha  occ. eigenvalues --   -0.43101  -0.41211  -0.39672  -0.38466  -0.37488
 Alpha  occ. eigenvalues --   -0.36255  -0.35631  -0.34940  -0.34745  -0.32421
 Alpha  occ. eigenvalues --   -0.30471  -0.29358
 Alpha virt. eigenvalues --   -0.04219  -0.03284  -0.03118  -0.02963  -0.01687
 Alpha virt. eigenvalues --   -0.01344  -0.01312  -0.00079   0.00033   0.00141
 Alpha virt. eigenvalues --    0.00736   0.00962   0.01764   0.02344   0.02434
 Alpha virt. eigenvalues --    0.03332   0.03643   0.04336   0.05145   0.05334
 Alpha virt. eigenvalues --    0.05750   0.06256   0.06469   0.06539   0.06918
 Alpha virt. eigenvalues --    0.07335   0.07667   0.07934   0.08050   0.08297
 Alpha virt. eigenvalues --    0.09145   0.09480   0.09685   0.09945   0.10137
 Alpha virt. eigenvalues --    0.10375   0.10413   0.10637   0.10739   0.11731
 Alpha virt. eigenvalues --    0.12069   0.12653   0.12920   0.13415   0.13603
 Alpha virt. eigenvalues --    0.14378   0.14738   0.15273   0.16098   0.16245
 Alpha virt. eigenvalues --    0.16280   0.17039   0.17353   0.17958   0.18349
 Alpha virt. eigenvalues --    0.18507   0.18689   0.19020   0.19907   0.21190
 Alpha virt. eigenvalues --    0.21539   0.22340   0.22705   0.22761   0.23028
 Alpha virt. eigenvalues --    0.23720   0.23723   0.24185   0.24948   0.25039
 Alpha virt. eigenvalues --    0.25060   0.25181   0.25538   0.25639   0.25830
 Alpha virt. eigenvalues --    0.26361   0.26715   0.27202   0.27453   0.27863
 Alpha virt. eigenvalues --    0.28121   0.28190   0.28362   0.28374   0.28718
 Alpha virt. eigenvalues --    0.28969   0.29067   0.29303   0.29589   0.29878
 Alpha virt. eigenvalues --    0.30094   0.30759   0.31081   0.31536   0.32004
 Alpha virt. eigenvalues --    0.32280   0.32479   0.32958   0.32992   0.33456
 Alpha virt. eigenvalues --    0.33526   0.33954   0.35145   0.35703   0.35864
 Alpha virt. eigenvalues --    0.36395   0.36731   0.37189   0.37680   0.37800
 Alpha virt. eigenvalues --    0.38155   0.38755   0.38870   0.39025   0.39657
 Alpha virt. eigenvalues --    0.39864   0.40701   0.41024   0.41242   0.41356
 Alpha virt. eigenvalues --    0.41625   0.42369   0.43044   0.43168   0.43466
 Alpha virt. eigenvalues --    0.44526   0.45947   0.45984   0.46072   0.46286
 Alpha virt. eigenvalues --    0.46803   0.47235   0.47592   0.49278   0.49355
 Alpha virt. eigenvalues --    0.49864   0.50280   0.51369   0.51666   0.51668
 Alpha virt. eigenvalues --    0.52568   0.53434   0.53707   0.54314   0.54761
 Alpha virt. eigenvalues --    0.55362   0.56558   0.57417   0.58504   0.58751
 Alpha virt. eigenvalues --    0.59189   0.60269   0.60636   0.61289   0.61333
 Alpha virt. eigenvalues --    0.62242   0.62561   0.62913   0.63297   0.63451
 Alpha virt. eigenvalues --    0.64847   0.65165   0.65551   0.65765   0.66710
 Alpha virt. eigenvalues --    0.67276   0.67365   0.67683   0.67984   0.68959
 Alpha virt. eigenvalues --    0.69262   0.69357   0.69438   0.70143   0.72103
 Alpha virt. eigenvalues --    0.72368   0.72670   0.73048   0.73262   0.73936
 Alpha virt. eigenvalues --    0.74021   0.74740   0.74812   0.75808   0.76475
 Alpha virt. eigenvalues --    0.76559   0.76783   0.77443   0.77467   0.78051
 Alpha virt. eigenvalues --    0.78271   0.79278   0.79395   0.79559   0.80756
 Alpha virt. eigenvalues --    0.80957   0.81361   0.81867   0.82673   0.83833
 Alpha virt. eigenvalues --    0.84309   0.84432   0.85039   0.85256   0.86488
 Alpha virt. eigenvalues --    0.86929   0.87248   0.88564   0.89455   0.89901
 Alpha virt. eigenvalues --    0.90648   0.91088   0.91654   0.92477   0.92674
 Alpha virt. eigenvalues --    0.92961   0.94334   0.94744   0.95028   0.95262
 Alpha virt. eigenvalues --    0.95408   0.96154   0.96482   0.96658   0.97009
 Alpha virt. eigenvalues --    0.97545   0.97996   0.98064   0.98396   0.99000
 Alpha virt. eigenvalues --    1.00222   1.00927   1.01587   1.02577   1.02827
 Alpha virt. eigenvalues --    1.02962   1.03488   1.04578   1.05788   1.06216
 Alpha virt. eigenvalues --    1.06680   1.07179   1.07212   1.07925   1.08275
 Alpha virt. eigenvalues --    1.08352   1.09095   1.09685   1.09842   1.10479
 Alpha virt. eigenvalues --    1.10852   1.11177   1.12128   1.12713   1.13280
 Alpha virt. eigenvalues --    1.13298   1.13605   1.15437   1.17077   1.17129
 Alpha virt. eigenvalues --    1.18239   1.20474   1.21430   1.22250   1.22514
 Alpha virt. eigenvalues --    1.24005   1.24725   1.25429   1.26929   1.27476
 Alpha virt. eigenvalues --    1.28020   1.29115   1.29568   1.30275   1.30967
 Alpha virt. eigenvalues --    1.31745   1.32393   1.33051   1.33693   1.33916
 Alpha virt. eigenvalues --    1.34257   1.34662   1.36425   1.37194   1.37855
 Alpha virt. eigenvalues --    1.38004   1.38592   1.39302   1.39457   1.40279
 Alpha virt. eigenvalues --    1.41064   1.41104   1.41885   1.41888   1.43843
 Alpha virt. eigenvalues --    1.43933   1.43971   1.44891   1.45024   1.45723
 Alpha virt. eigenvalues --    1.47016   1.47576   1.47688   1.48346   1.48436
 Alpha virt. eigenvalues --    1.48795   1.49037   1.49308   1.49951   1.50270
 Alpha virt. eigenvalues --    1.51236   1.51835   1.51968   1.52665   1.53430
 Alpha virt. eigenvalues --    1.53469   1.54161   1.54522   1.55333   1.55548
 Alpha virt. eigenvalues --    1.56149   1.56446   1.56773   1.58198   1.59366
 Alpha virt. eigenvalues --    1.59409   1.60536   1.61064   1.61121   1.61784
 Alpha virt. eigenvalues --    1.62360   1.62660   1.62830   1.65888   1.66133
 Alpha virt. eigenvalues --    1.66474   1.66935   1.68715   1.69772   1.69862
 Alpha virt. eigenvalues --    1.70090   1.71432   1.71865   1.73527   1.74169
 Alpha virt. eigenvalues --    1.74199   1.74886   1.75533   1.75998   1.76602
 Alpha virt. eigenvalues --    1.76639   1.79017   1.79301   1.79468   1.81189
 Alpha virt. eigenvalues --    1.81753   1.81998   1.84224   1.85442   1.85877
 Alpha virt. eigenvalues --    1.87409   1.88186   1.89462   1.91963   1.92491
 Alpha virt. eigenvalues --    1.93962   1.95568   1.95931   1.96115   1.97360
 Alpha virt. eigenvalues --    1.97508   1.97655   1.99115   1.99209   2.00832
 Alpha virt. eigenvalues --    2.02401   2.02574   2.03673   2.05224   2.05823
 Alpha virt. eigenvalues --    2.06841   2.06861   2.08783   2.08905   2.09838
 Alpha virt. eigenvalues --    2.10725   2.12537   2.13296   2.14320   2.16315
 Alpha virt. eigenvalues --    2.16858   2.18090   2.18602   2.19289   2.21330
 Alpha virt. eigenvalues --    2.21734   2.21855   2.22731   2.24661   2.26664
 Alpha virt. eigenvalues --    2.27647   2.31908   2.33320   2.34113   2.36021
 Alpha virt. eigenvalues --    2.38781   2.40151   2.40931   2.42652   2.44835
 Alpha virt. eigenvalues --    2.47321   2.47974   2.51989   2.56470   2.57334
 Alpha virt. eigenvalues --    2.57914   2.59541   2.60543   2.63761   2.64804
 Alpha virt. eigenvalues --    2.67496   2.68585   2.74988   2.76885   2.80041
 Alpha virt. eigenvalues --    2.82691   2.85657   2.87462   2.88059   2.90513
 Alpha virt. eigenvalues --    2.92142   2.95251   2.96519   2.97467   2.98874
 Alpha virt. eigenvalues --    3.01462   3.03750   3.04197   3.05161   3.06964
 Alpha virt. eigenvalues --    3.07100   3.09942   3.10294   3.10635   3.12897
 Alpha virt. eigenvalues --    3.13715   3.15923   3.17082   3.17252   3.18332
 Alpha virt. eigenvalues --    3.18763   3.18778   3.19118   3.22687   3.24651
 Alpha virt. eigenvalues --    3.25261   3.27754   3.27852   3.28067   3.28318
 Alpha virt. eigenvalues --    3.28479   3.31586   3.33989   3.34267   3.34831
 Alpha virt. eigenvalues --    3.35137   3.35368   3.36098   3.36941   3.37366
 Alpha virt. eigenvalues --    3.39052   3.40526   3.41435   3.43223   3.43710
 Alpha virt. eigenvalues --    3.45063   3.46174   3.47218   3.47356   3.49018
 Alpha virt. eigenvalues --    3.50214   3.52236   3.52593   3.54926   3.54928
 Alpha virt. eigenvalues --    3.54934   3.56996   3.57135   3.58102   3.59173
 Alpha virt. eigenvalues --    3.60260   3.60412   3.61518   3.62547   3.64380
 Alpha virt. eigenvalues --    3.65486   3.66169   3.67323   3.67542   3.68088
 Alpha virt. eigenvalues --    3.68427   3.68811   3.68826   3.69262   3.69948
 Alpha virt. eigenvalues --    3.72877   3.74723   3.76056   3.78853   3.79321
 Alpha virt. eigenvalues --    3.83070   3.83367   3.83707   3.86201   3.86272
 Alpha virt. eigenvalues --    3.87586   3.89481   3.89700   3.91305   3.93317
 Alpha virt. eigenvalues --    3.95176   3.95248   3.97969   4.00413   4.00503
 Alpha virt. eigenvalues --    4.01041   4.02352   4.02558   4.02583   4.04022
 Alpha virt. eigenvalues --    4.04778   4.08219   4.08403   4.09354   4.11314
 Alpha virt. eigenvalues --    4.14532   4.16854   4.17034   4.18092   4.19390
 Alpha virt. eigenvalues --    4.20330   4.20427   4.23729   4.24008   4.24135
 Alpha virt. eigenvalues --    4.26601   4.28101   4.28775   4.31298   4.32670
 Alpha virt. eigenvalues --    4.33111   4.33996   4.36275   4.36300   4.37909
 Alpha virt. eigenvalues --    4.39213   4.39688   4.41312   4.42420   4.44086
 Alpha virt. eigenvalues --    4.44134   4.44969   4.45433   4.46936   4.47359
 Alpha virt. eigenvalues --    4.48282   4.51476   4.52654   4.54822   4.56094
 Alpha virt. eigenvalues --    4.56521   4.57244   4.57653   4.60214   4.63088
 Alpha virt. eigenvalues --    4.64452   4.65152   4.68166   4.69404   4.69913
 Alpha virt. eigenvalues --    4.72469   4.72515   4.74550   4.76180   4.76456
 Alpha virt. eigenvalues --    4.78915   4.79101   4.80729   4.82804   4.82985
 Alpha virt. eigenvalues --    4.83135   4.84663   4.85694   4.86377   4.86934
 Alpha virt. eigenvalues --    4.87318   4.88578   4.89438   4.92757   4.93999
 Alpha virt. eigenvalues --    4.95729   4.97171   4.97309   5.00328   5.00525
 Alpha virt. eigenvalues --    5.01794   5.02374   5.04337   5.05030   5.05381
 Alpha virt. eigenvalues --    5.05913   5.07543   5.08482   5.10827   5.12862
 Alpha virt. eigenvalues --    5.14615   5.15330   5.17272   5.17891   5.20318
 Alpha virt. eigenvalues --    5.20411   5.21061   5.21715   5.23443   5.24293
 Alpha virt. eigenvalues --    5.27671   5.32265   5.32446   5.35001   5.35621
 Alpha virt. eigenvalues --    5.36923   5.40516   5.41997   5.42314   5.43365
 Alpha virt. eigenvalues --    5.44731   5.45136   5.46781   5.48084   5.51960
 Alpha virt. eigenvalues --    5.52825   5.57695   5.58129   5.58600   5.59641
 Alpha virt. eigenvalues --    5.62417   5.64125   5.64621   5.68905   5.69162
 Alpha virt. eigenvalues --    5.71059   5.71945   5.72535   5.77706   5.77971
 Alpha virt. eigenvalues --    5.79379   5.81265   5.91714   5.96868   6.00518
 Alpha virt. eigenvalues --    6.08985   6.11922   6.22675   6.23078   6.23415
 Alpha virt. eigenvalues --    6.28737   6.33400   6.36230   6.39326   6.40127
 Alpha virt. eigenvalues --    6.49773   6.60233   7.72948  16.70628  17.16978
 Alpha virt. eigenvalues --   17.48482  17.71457  17.75665  17.90732  18.33581
          Condensed to atoms (all electrons):
               1          2          3          4          5          6
     1  C    9.180781  -0.014074  -0.013948  -1.285793   0.011795   0.011768
     2  H   -0.014074   0.367441   0.044171   0.018927  -0.054533   0.008776
     3  H   -0.013948   0.044171   0.367587   0.019203   0.008731  -0.054536
     4  C   -1.285793   0.018927   0.019203  11.952551  -0.414754  -0.415374
     5  H    0.011795  -0.054533   0.008731  -0.414754   0.614916   0.025976
     6  H    0.011768   0.008776  -0.054536  -0.415374   0.025976   0.614878
     7  C    0.325677   0.086458   0.086304  -2.177665  -0.053698  -0.054199
     8  H   -0.071615  -0.057074  -0.050166   0.234207   0.150362  -0.042248
     9  H   -0.071550  -0.050225  -0.057283   0.234716  -0.042579   0.150264
    10  C   -0.218083   0.013954   0.013869   0.140058   0.072497   0.073268
    11  H   -0.015585   0.002806   0.001636  -0.027522  -0.003492  -0.083548
    12  H   -0.015593   0.001673   0.002788  -0.026035  -0.083874  -0.003685
    13  Cl  -0.729006   0.071438   0.071473   0.069870  -0.041046  -0.040997
    14  C   -0.084905   0.025113   0.025125  -0.540764   0.003341   0.003131
    15  H    0.003905   0.000816   0.003652  -0.027396   0.002785  -0.001719
    16  H    0.003918   0.003668   0.000837  -0.027607  -0.001743   0.002760
    17  C   -0.002094   0.001830   0.001831  -0.148278   0.008984   0.008972
    18  H    0.000962   0.000249   0.000122   0.009791  -0.000165   0.001538
    19  H    0.000958   0.000124   0.000249   0.009709   0.001534  -0.000162
    20  C   -0.000726   0.000337   0.000337  -0.000010   0.000562   0.000528
    21  H    0.000080  -0.000048   0.000031   0.000332   0.000025  -0.000231
    22  H    0.000002  -0.000005  -0.000005  -0.000641   0.000184   0.000183
    23  H    0.000081   0.000032  -0.000047   0.000285  -0.000234   0.000028
               7          8          9         10         11         12
     1  C    0.325677  -0.071615  -0.071550  -0.218083  -0.015585  -0.015593
     2  H    0.086458  -0.057074  -0.050225   0.013954   0.002806   0.001673
     3  H    0.086304  -0.050166  -0.057283   0.013869   0.001636   0.002788
     4  C   -2.177665   0.234207   0.234716   0.140058  -0.027522  -0.026035
     5  H   -0.053698   0.150362  -0.042579   0.072497  -0.003492  -0.083874
     6  H   -0.054199  -0.042248   0.150264   0.073268  -0.083548  -0.003685
     7  C   13.684214  -1.026643  -1.023908  -2.212826   0.096961   0.099801
     8  H   -1.026643   1.036105   0.020417   0.157457   0.156580  -0.145042
     9  H   -1.023908   0.020417   1.037695   0.156687  -0.145188   0.156715
    10  C   -2.212826   0.157457   0.156687  12.825987  -0.823884  -0.822406
    11  H    0.096961   0.156580  -0.145188  -0.823884   0.980453  -0.120258
    12  H    0.099801  -0.145042   0.156715  -0.822406  -0.120258   0.980451
    13  Cl   0.035946   0.001033   0.001016  -0.011167   0.000733   0.000759
    14  C    0.293017  -0.031407  -0.032165  -2.337138   0.127128   0.129571
    15  H   -0.040181  -0.043296  -0.138234   0.063320   0.160544  -0.122862
    16  H   -0.037618  -0.138499  -0.044314   0.062983  -0.120267   0.160136
    17  C   -0.450262  -0.023049  -0.023273   0.161180   0.043936   0.039373
    18  H    0.039441  -0.002488   0.002032   0.102208  -0.081059   0.000932
    19  H    0.039390   0.002038  -0.002419   0.101600   0.000464  -0.080752
    20  C   -0.258287  -0.004003  -0.004087  -0.274353  -0.008633  -0.008493
    21  H    0.017280   0.000887   0.004298   0.028559  -0.001384   0.002943
    22  H    0.009929   0.000440   0.000442  -0.016539   0.001527   0.001505
    23  H    0.017294   0.004281   0.000879   0.028272   0.002922  -0.001338
              13         14         15         16         17         18
     1  C   -0.729006  -0.084905   0.003905   0.003918  -0.002094   0.000962
     2  H    0.071438   0.025113   0.000816   0.003668   0.001830   0.000249
     3  H    0.071473   0.025125   0.003652   0.000837   0.001831   0.000122
     4  C    0.069870  -0.540764  -0.027396  -0.027607  -0.148278   0.009791
     5  H   -0.041046   0.003341   0.002785  -0.001743   0.008984  -0.000165
     6  H   -0.040997   0.003131  -0.001719   0.002760   0.008972   0.001538
     7  C    0.035946   0.293017  -0.040181  -0.037618  -0.450262   0.039441
     8  H    0.001033  -0.031407  -0.043296  -0.138499  -0.023049  -0.002488
     9  H    0.001016  -0.032165  -0.138234  -0.044314  -0.023273   0.002032
    10  C   -0.011167  -2.337138   0.063320   0.062983   0.161180   0.102208
    11  H    0.000733   0.127128   0.160544  -0.120267   0.043936  -0.081059
    12  H    0.000759   0.129571  -0.122862   0.160136   0.039373   0.000932
    13  Cl  18.059612   0.014107   0.000418   0.000421   0.000648   0.000203
    14  C    0.014107  12.873829  -0.806100  -0.809923  -1.836432   0.184445
    15  H    0.000418  -0.806100   0.998219   0.005717   0.067945  -0.083661
    16  H    0.000421  -0.809923   0.005717   0.999387   0.067157   0.106215
    17  C    0.000648  -1.836432   0.067945   0.067157  11.934683  -0.436592
    18  H    0.000203   0.184445  -0.083661   0.106215  -0.436592   0.564735
    19  H    0.000204   0.183645   0.105973  -0.083910  -0.432942  -0.012429
    20  C    0.000140  -0.123366   0.061126   0.059696  -2.128013  -0.234324
    21  H   -0.000006   0.023773  -0.061451  -0.025793   0.236927   0.067374
    22  H    0.000012   0.056935   0.006916   0.006743   0.126119  -0.032059
    23  H   -0.000006   0.024417  -0.025959  -0.061222   0.236356  -0.001067
              19         20         21         22         23
     1  C    0.000958  -0.000726   0.000080   0.000002   0.000081
     2  H    0.000124   0.000337  -0.000048  -0.000005   0.000032
     3  H    0.000249   0.000337   0.000031  -0.000005  -0.000047
     4  C    0.009709  -0.000010   0.000332  -0.000641   0.000285
     5  H    0.001534   0.000562   0.000025   0.000184  -0.000234
     6  H   -0.000162   0.000528  -0.000231   0.000183   0.000028
     7  C    0.039390  -0.258287   0.017280   0.009929   0.017294
     8  H    0.002038  -0.004003   0.000887   0.000440   0.004281
     9  H   -0.002419  -0.004087   0.004298   0.000442   0.000879
    10  C    0.101600  -0.274353   0.028559  -0.016539   0.028272
    11  H    0.000464  -0.008633  -0.001384   0.001527   0.002922
    12  H   -0.080752  -0.008493   0.002943   0.001505  -0.001338
    13  Cl   0.000204   0.000140  -0.000006   0.000012  -0.000006
    14  C    0.183645  -0.123366   0.023773   0.056935   0.024417
    15  H    0.105973   0.061126  -0.061451   0.006916  -0.025959
    16  H   -0.083910   0.059696  -0.025793   0.006743  -0.061222
    17  C   -0.432942  -2.128013   0.236927   0.126119   0.236356
    18  H   -0.012429  -0.234324   0.067374  -0.032059  -0.001067
    19  H    0.564443  -0.234332  -0.001179  -0.031713   0.067231
    20  C   -0.234332  12.778957  -0.390559  -0.001043  -0.390067
    21  H   -0.001179  -0.390559   0.400334  -0.090070   0.053989
    22  H   -0.031713  -0.001043  -0.090070   0.396984  -0.089984
    23  H    0.067231  -0.390067   0.053989  -0.089984   0.400124
 Mulliken charges:
               1
     1  C   -1.016956
     2  H    0.528147
     3  H    0.528036
     4  C   -1.597809
     5  H    0.794427
     6  H    0.794631
     7  C   -1.496424
     8  H    0.871724
     9  H    0.870064
    10  C   -1.285502
    11  H    0.855130
    12  H    0.853692
    13  Cl  -0.505802
    14  C   -1.365377
    15  H    0.869523
    16  H    0.871256
    17  C   -1.455007
    18  H    0.803598
    19  H    0.802277
    20  C   -2.841387
    21  H    0.733891
    22  H    0.654137
    23  H    0.733732
 Sum of Mulliken charges =  -0.00000
 Mulliken charges with hydrogens summed into heavy atoms:
               1
     1  C    0.039227
     4  C   -0.008752
     7  C    0.245363
    10  C    0.423320
    13  Cl  -0.505802
    14  C    0.375402
    17  C    0.150868
    20  C   -0.719627
 Electronic spatial extent (au):  <R**2>=           2933.6626
 Charge=             -0.0000 electrons
 Dipole moment (field-independent basis, Debye):
    X=             -2.0591    Y=              0.7409    Z=             -0.0001  Tot=              2.1883
 Quadrupole moment (field-independent basis, Debye-Ang):
   XX=            -71.9650   YY=            -59.8065   ZZ=            -58.3471
   XY=              2.6742   XZ=              0.0000   YZ=             -0.0006
 Traceless Quadrupole moment (field-independent basis, Debye-Ang):
   XX=             -8.5921   YY=              3.5664   ZZ=              5.0258
   XY=              2.6742   XZ=              0.0000   YZ=             -0.0006
 Octapole moment (field-independent basis, Debye-Ang**2):
  XXX=            -25.4470  YYY=              0.0201  ZZZ=              0.0006  XYY=              8.6901
  XXY=              0.3424  XXZ=              0.0032  XZZ=              4.0952  YZZ=              0.9095
  YYZ=             -0.0012  XYZ=              0.0011
 Hexadecapole moment (field-independent basis, Debye-Ang**3):
 XXXX=          -3908.3470 YYYY=           -200.4793 ZZZZ=           -110.8586 XXXY=             16.1537
 XXXZ=              0.0220 YYYX=              0.5350 YYYZ=             -0.0015 ZZZX=             -0.0159
 ZZZY=             -0.0018 XXYY=           -635.0126 XXZZ=           -623.6183 YYZZ=            -47.0238
 XXYZ=             -0.0033 YYXZ=              0.0059 ZZXY=              0.9113
 N-N= 4.258953183220D+02 E-N=-2.583306683605D+03  KE= 7.329743284003D+02
 Calling FoFJK, ICntrl=      2127 FMM=F ISym2X=0 I1Cent= 0 IOpClX= 0 NMat=1 NMatS=1 NMatT=0.
 ***** Axes restored to original set *****
 -------------------------------------------------------------------
 Center     Atomic                   Forces (Hartrees/Bohr)
 Number     Number              X              Y              Z
 -------------------------------------------------------------------
      1        6           0.010075975   -0.035038360   -0.000000386
      2        1           0.001337775    0.008392485    0.010297354
      3        1           0.001337244    0.008391418   -0.010297800
      4        6           0.021561305    0.035510252   -0.000001229
      5        1          -0.006842218   -0.007862637    0.010566048
      6        1          -0.006843493   -0.007862261   -0.010566068
      7        6          -0.027752489   -0.034545730   -0.000008543
      8        1           0.007006524    0.009024009   -0.011377393
      9        1           0.007003960    0.009021359    0.011376938
     10        6           0.027022068    0.039145774   -0.000005260
     11        1          -0.006473325   -0.009098697    0.011226682
     12        1          -0.006474830   -0.009107015   -0.011218532
     13       17          -0.014106198    0.004867055    0.000000382
     14        6          -0.027369045   -0.039941337    0.000074095
     15        1           0.006612945    0.009196578   -0.011439498
     16        1           0.006614158    0.009232483    0.011408786
     17        6           0.027902626    0.033158974   -0.000093118
     18        1          -0.007209052   -0.008502620   -0.010575053
     19        1          -0.007198369   -0.008456456    0.010616073
     20        6          -0.029662395   -0.006934101    0.000030895
     21        1           0.007154273    0.006378677    0.010456437
     22        1           0.009157641   -0.011302935    0.000019616
     23        1           0.007144919    0.006333083   -0.010490427
 -------------------------------------------------------------------
 Cartesian Forces:  Max     0.039941337 RMS     0.015264428

 GradGradGradGradGradGradGradGradGradGradGradGradGradGradGradGradGradGrad
 Berny optimization.
 FormGI is forming the generalized inverse of G from B-inverse, IUseBI=4.
 Internal  Forces:  Max     0.015882093 RMS     0.006336336
 Search for a local minimum.
 Step number   1 out of a maximum of  128
 All quantities printed in internal units (Hartrees-Bohrs-Radians)
 Mixed Optimization -- RFO/linear search
 Second derivative matrix not updated -- first step.
 ITU=  0
     Eigenvalues ---    0.00237   0.00237   0.00237   0.00237   0.00237
     Eigenvalues ---    0.00237   0.03840   0.03840   0.03840   0.03840
     Eigenvalues ---    0.03840   0.04896   0.04896   0.04896   0.04896
     Eigenvalues ---    0.04896   0.05720   0.05720   0.05720   0.05976
     Eigenvalues ---    0.07655   0.07655   0.07655   0.07655   0.07655
     Eigenvalues ---    0.11701   0.11701   0.11701   0.11701   0.11701
     Eigenvalues ---    0.16000   0.16000   0.16000   0.16000   0.16000
     Eigenvalues ---    0.21948   0.21948   0.21948   0.21948   0.21948
     Eigenvalues ---    0.22461   0.28519   0.28519   0.28519   0.28519
     Eigenvalues ---    0.28519   0.28519   0.29539   0.37230   0.37230
     Eigenvalues ---    0.37230   0.37230   0.37230   0.37230   0.37230
     Eigenvalues ---    0.37230   0.37230   0.37230   0.37230   0.37230
     Eigenvalues ---    0.37230   0.37230   0.37230
 RFO step:  Lambda=-1.55344180D-02 EMin= 2.36824055D-03
 Linear search not attempted -- first point.
 Iteration  1 RMS(Cart)=  0.02727063 RMS(Int)=  0.00041518
 Iteration  2 RMS(Cart)=  0.00106253 RMS(Int)=  0.00015463
 Iteration  3 RMS(Cart)=  0.00000010 RMS(Int)=  0.00015463
 Variable       Old X    -DE/DX   Delta X   Delta X   Delta X     New X
                                 (Linear)    (Quad)   (Total)
    R1        2.02201   0.01282   0.00000   0.03305   0.03305   2.05506
    R2        2.02201   0.01282   0.00000   0.03305   0.03305   2.05506
    R3        2.91018  -0.01214   0.00000  -0.04036  -0.04036   2.86982
    R4        3.32592   0.01410   0.00000   0.04533   0.04533   3.37125
    R5        2.02201   0.01461   0.00000   0.03767   0.03767   2.05967
    R6        2.02201   0.01461   0.00000   0.03767   0.03767   2.05967
    R7        2.91018  -0.00657   0.00000  -0.02186  -0.02186   2.88831
    R8        2.02201   0.01588   0.00000   0.04095   0.04095   2.06296
    R9        2.02201   0.01588   0.00000   0.04094   0.04094   2.06295
   R10        2.91018  -0.00705   0.00000  -0.02346  -0.02346   2.88672
   R11        2.02201   0.01561   0.00000   0.04026   0.04026   2.06227
   R12        2.02201   0.01561   0.00000   0.04025   0.04025   2.06226
   R13        2.91018  -0.00691   0.00000  -0.02299  -0.02299   2.88719
   R14        2.02201   0.01587   0.00000   0.04093   0.04093   2.06293
   R15        2.02201   0.01587   0.00000   0.04093   0.04093   2.06293
   R16        2.91018  -0.00758   0.00000  -0.02520  -0.02520   2.88498
   R17        2.02201   0.01506   0.00000   0.03882   0.03882   2.06083
   R18        2.02201   0.01505   0.00000   0.03882   0.03882   2.06082
   R19        2.91018  -0.00624   0.00000  -0.02074  -0.02074   2.88944
   R20        2.02201   0.01392   0.00000   0.03590   0.03590   2.05790
   R21        2.02201   0.01372   0.00000   0.03537   0.03537   2.05738
   R22        2.02201   0.01392   0.00000   0.03590   0.03590   2.05790
    A1        1.91063  -0.00248   0.00000  -0.01155  -0.01175   1.89889
    A2        1.91063   0.00249   0.00000   0.01744   0.01715   1.92778
    A3        1.91063  -0.00625   0.00000  -0.03176  -0.03210   1.87853
    A4        1.91063   0.00249   0.00000   0.01743   0.01714   1.92778
    A5        1.91063  -0.00625   0.00000  -0.03176  -0.03210   1.87854
    A6        1.91063   0.01000   0.00000   0.04021   0.03986   1.95049
    A7        1.91063  -0.00168   0.00000  -0.00772  -0.00795   1.90268
    A8        1.91063  -0.00168   0.00000  -0.00774  -0.00797   1.90267
    A9        1.91063   0.00490   0.00000   0.02672   0.02660   1.93723
   A10        1.91063  -0.00049   0.00000  -0.02092  -0.02102   1.88961
   A11        1.91063  -0.00053   0.00000   0.00482   0.00483   1.91546
   A12        1.91063  -0.00052   0.00000   0.00484   0.00484   1.91548
   A13        1.91063  -0.00177   0.00000  -0.00134  -0.00146   1.90917
   A14        1.91063  -0.00177   0.00000  -0.00134  -0.00146   1.90917
   A15        1.91063   0.00836   0.00000   0.04337   0.04313   1.95377
   A16        1.91063  -0.00016   0.00000  -0.02574  -0.02589   1.88474
   A17        1.91063  -0.00233   0.00000  -0.00748  -0.00778   1.90285
   A18        1.91063  -0.00233   0.00000  -0.00748  -0.00778   1.90285
   A19        1.91063  -0.00267   0.00000  -0.00684  -0.00711   1.90352
   A20        1.91063  -0.00268   0.00000  -0.00692  -0.00719   1.90344
   A21        1.91063   0.01040   0.00000   0.05258   0.05230   1.96293
   A22        1.91063   0.00022   0.00000  -0.02589  -0.02611   1.88453
   A23        1.91063  -0.00264   0.00000  -0.00645  -0.00670   1.90393
   A24        1.91063  -0.00263   0.00000  -0.00648  -0.00673   1.90391
   A25        1.91063  -0.00268   0.00000  -0.00642  -0.00667   1.90396
   A26        1.91063  -0.00268   0.00000  -0.00641  -0.00666   1.90397
   A27        1.91063   0.01066   0.00000   0.05385   0.05356   1.96419
   A28        1.91063   0.00025   0.00000  -0.02617  -0.02640   1.88423
   A29        1.91063  -0.00278   0.00000  -0.00745  -0.00774   1.90289
   A30        1.91063  -0.00277   0.00000  -0.00738  -0.00767   1.90296
   A31        1.91063  -0.00251   0.00000  -0.00983  -0.01022   1.90041
   A32        1.91063  -0.00251   0.00000  -0.00984  -0.01024   1.90039
   A33        1.91063   0.00817   0.00000   0.04280   0.04255   1.95319
   A34        1.91063  -0.00029   0.00000  -0.02711  -0.02729   1.88334
   A35        1.91063  -0.00142   0.00000   0.00200   0.00195   1.91258
   A36        1.91063  -0.00143   0.00000   0.00198   0.00193   1.91256
   A37        1.91063   0.00210   0.00000   0.01087   0.01070   1.92134
   A38        1.91063   0.00607   0.00000   0.03676   0.03644   1.94708
   A39        1.91063   0.00210   0.00000   0.01088   0.01072   1.92135
   A40        1.91063  -0.00374   0.00000  -0.01910  -0.01941   1.89123
   A41        1.91063  -0.00279   0.00000  -0.02032  -0.02031   1.89032
   A42        1.91063  -0.00374   0.00000  -0.01910  -0.01941   1.89122
    D1        1.04720   0.00133   0.00000   0.01396   0.01393   1.06112
    D2        3.14159  -0.00134   0.00000  -0.02113  -0.02102   3.12057
    D3       -1.04720  -0.00000   0.00000  -0.00358  -0.00354  -1.05074
    D4        3.14159   0.00134   0.00000   0.02116   0.02106  -3.12054
    D5       -1.04720  -0.00133   0.00000  -0.01392  -0.01389  -1.06109
    D6        1.04720   0.00001   0.00000   0.00362   0.00359   1.05078
    D7       -1.04720   0.00133   0.00000   0.01756   0.01749  -1.02971
    D8        1.04720  -0.00133   0.00000  -0.01753  -0.01746   1.02973
    D9        3.14159   0.00000   0.00000   0.00002   0.00002  -3.14157
   D10       -1.04720   0.00118   0.00000   0.01661   0.01667  -1.03053
   D11        1.04720  -0.00118   0.00000  -0.01656  -0.01662   1.03057
   D12        3.14159   0.00000   0.00000   0.00002   0.00002  -3.14157
   D13        3.14159   0.00056   0.00000   0.00675   0.00674  -3.13485
   D14       -1.04720  -0.00180   0.00000  -0.02642  -0.02655  -1.07374
   D15        1.04720  -0.00062   0.00000  -0.00983  -0.00990   1.03730
   D16        1.04720   0.00180   0.00000   0.02646   0.02659   1.07378
   D17        3.14159  -0.00056   0.00000  -0.00671  -0.00670   3.13489
   D18       -1.04720   0.00062   0.00000   0.00987   0.00994  -1.03726
   D19       -1.04720   0.00150   0.00000   0.02005   0.02005  -1.02715
   D20        1.04720  -0.00150   0.00000  -0.02009  -0.02009   1.02711
   D21        3.14159  -0.00000   0.00000  -0.00006  -0.00006   3.14153
   D22        3.14159  -0.00002   0.00000  -0.00030  -0.00025   3.14134
   D23       -1.04720  -0.00303   0.00000  -0.04043  -0.04039  -1.08759
   D24        1.04720  -0.00153   0.00000  -0.02041  -0.02036   1.02683
   D25        1.04720   0.00303   0.00000   0.04039   0.04035   1.08754
   D26        3.14159   0.00002   0.00000   0.00025   0.00021  -3.14138
   D27       -1.04720   0.00152   0.00000   0.02028   0.02024  -1.02696
   D28       -1.04914   0.00150   0.00000   0.02030   0.02031  -1.02883
   D29        1.04526  -0.00148   0.00000  -0.01962  -0.01963   1.02562
   D30        3.13965   0.00001   0.00000   0.00039   0.00039   3.14004
   D31        3.13965   0.00001   0.00000   0.00043   0.00043   3.14009
   D32       -1.04914  -0.00296   0.00000  -0.03949  -0.03951  -1.08865
   D33        1.04526  -0.00147   0.00000  -0.01948  -0.01949   1.02576
   D34        1.04526   0.00297   0.00000   0.04005   0.04008   1.08533
   D35        3.13965  -0.00001   0.00000   0.00013   0.00013   3.13978
   D36       -1.04914   0.00149   0.00000   0.02014   0.02015  -1.02899
   D37        1.04666  -0.00172   0.00000  -0.02260  -0.02250   1.02415
   D38       -1.04774   0.00172   0.00000   0.02265   0.02255  -1.02518
   D39        3.14105   0.00000   0.00000   0.00004   0.00004   3.14110
   D40       -1.04774  -0.00326   0.00000  -0.04314  -0.04304  -1.09078
   D41        3.14105   0.00017   0.00000   0.00211   0.00202  -3.14011
   D42        1.04666  -0.00154   0.00000  -0.02050  -0.02049   1.02617
   D43        3.14105  -0.00017   0.00000  -0.00200  -0.00191   3.13914
   D44        1.04666   0.00326   0.00000   0.04325   0.04315   1.08981
   D45       -1.04774   0.00155   0.00000   0.02065   0.02064  -1.02710
   D46        1.04719  -0.00042   0.00000  -0.00580  -0.00588   1.04131
   D47        3.14158  -0.00000   0.00000  -0.00002  -0.00002   3.14156
   D48       -1.04721   0.00042   0.00000   0.00576   0.00584  -1.04136
   D49        3.14158   0.00063   0.00000   0.00960   0.00962  -3.13198
   D50       -1.04721   0.00105   0.00000   0.01538   0.01548  -1.03172
   D51        1.04719   0.00147   0.00000   0.02116   0.02135   1.06854
   D52       -1.04721  -0.00147   0.00000  -0.02117  -0.02135  -1.06856
   D53        1.04719  -0.00105   0.00000  -0.01539  -0.01550   1.03169
   D54        3.14158  -0.00063   0.00000  -0.00960  -0.00963   3.13195
         Item               Value     Threshold  Converged?
 Maximum Force            0.015882     0.000450     NO 
 RMS     Force            0.006336     0.000300     NO 
 Maximum Displacement     0.094009     0.001800     NO 
 RMS     Displacement     0.026377     0.001200     NO 
 Predicted change in Energy=-8.319897D-03
 GradGradGradGradGradGradGradGradGradGradGradGradGradGradGradGradGradGrad

                          Input orientation:                          
 ---------------------------------------------------------------------
 Center     Atomic      Atomic             Coordinates (Angstroms)
 Number     Number       Type             X           Y           Z
 ---------------------------------------------------------------------
      1          6           0       -5.580603    1.878672   -0.000207
      2          1           0       -5.234598    2.408943    0.883948
      3          1           0       -5.234556    2.408665   -0.884511
      4          6           0       -5.061788    0.451397    0.000022
      5          1           0       -5.439310   -0.063550    0.883345
      6          1           0       -5.439255   -0.063799   -0.883180
      7          6           0       -3.533600    0.424216    0.000088
      8          1           0       -3.161815    0.947235   -0.883072
      9          1           0       -3.161890    0.947451    0.883147
     10          6           0       -2.988064   -1.002638    0.000286
     11          1           0       -3.359152   -1.526003    0.883081
     12          1           0       -3.359159   -1.526161   -0.882409
     13         17           0       -7.363734    1.934042   -0.000257
     14          6           0       -1.460785   -1.043809    0.000261
     15          1           0       -1.089584   -0.521611   -0.883613
     16          1           0       -1.089462   -0.518527    0.882257
     17          6           0       -0.913782   -2.469110    0.002651
     18          1           0       -1.288124   -2.992338   -0.877910
     19          1           0       -1.287174   -2.988999    0.885586
     20          6           0        0.615047   -2.493487    0.001893
     21          1           0        0.997665   -1.981262    0.883449
     22          1           0        0.998919   -3.512284    0.003639
     23          1           0        0.996754   -1.984633   -0.882006
 ---------------------------------------------------------------------
                    Distance matrix (angstroms):
                    1          2          3          4          5
     1  C    0.000000
     2  H    1.087491   0.000000
     3  H    1.087490   1.768459   0.000000
     4  C    1.518645   2.154803   2.154796   0.000000
     5  H    2.138423   2.480953   3.046159   1.089932   0.000000
     6  H    2.138414   3.046157   2.480923   1.089932   1.766525
     7  C    2.511108   2.759301   2.759312   1.528430   2.156337
     8  H    2.738167   3.091177   2.536145   2.153046   3.054324
     9  H    2.738185   2.536154   3.091230   2.153043   2.491740
    10  C    3.875977   4.179312   4.179303   2.532696   2.769528
    11  H    4.160150   4.359024   4.703523   2.754791   2.542799
    12  H    4.160046   4.703438   4.358896   2.754699   3.095827
    13  Cl   1.783990   2.353841   2.353842   2.738100   2.911105
    14  C    5.051117   5.190766   5.190736   3.899085   4.191587
    15  H    5.168270   5.375273   5.076151   4.184013   4.717211
    16  H    5.166784   5.074666   5.373242   4.183117   4.373578
    17  C    6.378278   6.575829   6.576384   5.072999   5.200263
    18  H    6.551525   6.917560   6.689186   5.183688   5.377003
    19  H    6.550754   6.687296   6.917358   5.183460   5.079222
    20  C    7.582997   7.683110   7.683401   6.395217   6.583068
    21  H    7.678121   7.623319   7.825453   6.589025   6.716566
    22  H    8.506029   8.642489   8.643070   7.241751   7.356524
    23  H    7.678823   7.826356   7.624322   6.589245   6.944778
                    6          7          8          9         10
     6  H    0.000000
     7  C    2.156349   0.000000
     8  H    2.491770   1.091670   0.000000
     9  H    3.054329   1.091667   1.766219   0.000000
    10  C    2.769524   1.527587   2.147676   2.147674   0.000000
    11  H    3.095892   2.147897   3.045512   2.481307   1.091304
    12  H    2.542696   2.147837   2.481256   3.045465   1.091301
    13  Cl   2.911106   4.116977   4.405595   4.405594   5.269779
    14  C    4.191552   2.540011   2.763700   2.763758   1.527834
    15  H    4.373697   2.765634   2.540010   3.094194   2.148695
    16  H    4.716380   2.764199   3.091843   2.538514   2.148703
    17  C    5.200973   3.903176   4.184444   4.183557   2.540313
    18  H    5.080183   4.181613   4.362452   4.704707   2.760423
    19  H    5.378207   4.180978   4.704930   4.360069   2.760872
    20  C    6.583411   5.071909   5.185212   5.184777   3.899365
    21  H    6.944896   5.205671   5.384976   5.087166   4.198061
    22  H    7.357213   6.003314   6.163220   6.162395   4.711091
    23  H    6.716533   5.206222   5.088178   5.385833   4.197801
                   11         12         13         14         15
    11  H    0.000000
    12  H    1.765489   0.000000
    13  Cl   5.365526   5.365428   0.000000
    14  C    2.148412   2.148393   6.611535   0.000000
    15  H    3.046465   2.481953   6.795256   1.091657   0.000000
    16  H    2.483243   3.046456   6.794145   1.091658   1.765873
    17  C    2.764858   2.766288   7.809585   1.526663   2.146887
    18  H    3.088751   2.537495   7.870993   2.144240   2.478698
    19  H    2.536426   3.091734   7.870555   2.144226   3.042550
    20  C    4.184109   4.184736   9.124909   2.531926   2.752850
    21  H    4.380538   4.723058   9.274887   2.775395   3.099952
    22  H    4.869447   4.870586   9.979802   3.484757   3.754090
    23  H    4.722265   4.379974   9.275303   2.775436   2.548184
                   16         17         18         19         20
    16  H    0.000000
    17  C    2.146938   0.000000
    18  H    3.042597   1.090545   0.000000
    19  H    2.478372   1.090541   1.763499   0.000000
    20  C    2.753335   1.529024   2.155219   2.155200   0.000000
    21  H    2.548665   2.160424   3.057694   2.497203   1.088995
    22  H    3.754449   2.178679   2.505601   2.505569   1.088719
    23  H    3.100707   2.160436   2.497230   3.057688   1.088995
                   21         22         23
    21  H    0.000000
    22  H    1.765814   0.000000
    23  H    1.765458   1.765812   0.000000
 Stoichiometry    C7H15Cl
 Framework group  C1[X(C7H15Cl)]
 Deg. of freedom    63
 Full point group                 C1      NOp   1
 Largest Abelian subgroup         C1      NOp   1
 Largest concise Abelian subgroup C1      NOp   1
                         Standard orientation:                         
 ---------------------------------------------------------------------
 Center     Atomic      Atomic             Coordinates (Angstroms)
 Number     Number       Type             X           Y           Z
 ---------------------------------------------------------------------
      1          6           0        2.602129    0.653118   -0.000407
      2          1           0        2.587691    1.285523   -0.884992
      3          1           0        2.587963    1.286523    0.883467
      4          6           0        1.408448   -0.285715    0.000316
      5          1           0        1.457290   -0.922942   -0.882582
      6          1           0        1.457567   -0.921911    0.883943
      7          6           0        0.095857    0.497357    0.000051
      8          1           0        0.056147    1.138414    0.882781
      9          1           0        0.055870    1.137346   -0.883438
     10          6           0       -1.120302   -0.427022    0.000800
     11          1           0       -1.081367   -1.068005   -0.881565
     12          1           0       -1.080990   -1.066932    0.883924
     13         17           0        4.146175   -0.240495   -0.000140
     14          6           0       -2.439501    0.343685    0.000635
     15          1           0       -2.479149    0.983737    0.884081
     16          1           0       -2.478080    0.985209   -0.881791
     17          6           0       -3.656089   -0.578602   -0.000808
     18          1           0       -3.613863   -1.219976    0.880183
     19          1           0       -3.613363   -1.217848   -0.883315
     20          6           0       -4.967745    0.207191   -0.000252
     21          1           0       -5.022807    0.843581   -0.882231
     22          1           0       -5.831304   -0.455814   -0.001320
     23          1           0       -5.023357    0.841449    0.883226
 ---------------------------------------------------------------------
 Rotational constants (GHZ):     10.8156513      0.3611569      0.3548861
 Standard basis: Aug-CC-pVTZ (5D, 7F)
 There are   819 symmetry adapted cartesian basis functions of A   symmetry.
 There are   717 symmetry adapted basis functions of A   symmetry.
   717 basis functions,  1023 primitive gaussians,   819 cartesian basis functions
    37 alpha electrons       37 beta electrons
       nuclear repulsion energy       423.1799956346 Hartrees.
 NAtoms=   23 NActive=   23 NUniq=   23 SFac= 1.00D+00 NAtFMM=   60 NAOKFM=F Big=F
 Integral buffers will be    131072 words long.
 Raffenetti 2 integral format.
 Two-electron integral symmetry is turned on.
 One-electron integrals computed using PRISM.
 NBasis=   717 RedAO= T EigKep=  3.34D-06  NBF=   717
 NBsUse=   717 1.00D-06 EigRej= -1.00D+00 NBFU=   717
 Initial guess from the checkpoint file:  "20170630_augccpVTZ_ccsdt_chloroheptane.chk"
 B after Tr=     0.000000   -0.000000   -0.000000
         Rot=    1.000000   -0.000000   -0.000001   -0.000129 Ang=  -0.01 deg.
 ExpMin= 2.53D-02 ExpMax= 4.56D+05 ExpMxC= 1.44D+03 IAcc=3 IRadAn=         5 AccDes= 0.00D+00
 Harris functional with IExCor= 1009 and IRadAn=       5 diagonalized for initial guess.
 HarFok:  IExCor= 1009 AccDes= 0.00D+00 IRadAn=         5 IDoV= 1 UseB2=F ITyADJ=14
 ICtDFT=  3500011 ScaDFX=  1.000000  1.000000  1.000000  1.000000
 FoFCou: FMM=F IPFlag=           0 FMFlag=      100000 FMFlg1=           0
         NFxFlg=           0 DoJE=T BraDBF=F KetDBF=T FulRan=T
         wScrn=  0.000000 ICntrl=     500 IOpCl=  0 I1Cent=   200000004 NGrid=           0
         NMat0=    1 NMatS0=      1 NMatT0=    0 NMatD0=    1 NMtDS0=    0 NMtDT0=    0
 Petite list used in FoFCou.
 Requested convergence on RMS density matrix=1.00D-08 within 128 cycles.
 Requested convergence on MAX density matrix=1.00D-06.
 Requested convergence on             energy=1.00D-06.
 No special actions if energy rises.
 SCF Done:  E(RM06) =  -735.859187005     A.U. after   12 cycles
            NFock= 12  Conv=0.69D-08     -V/T= 2.0044
 Calling FoFJK, ICntrl=      2127 FMM=F ISym2X=0 I1Cent= 0 IOpClX= 0 NMat=1 NMatS=1 NMatT=0.
 ***** Axes restored to original set *****
 -------------------------------------------------------------------
 Center     Atomic                   Forces (Hartrees/Bohr)
 Number     Number              X              Y              Z
 -------------------------------------------------------------------
      1        6           0.009167257   -0.009160313    0.000001294
      2        1          -0.001043933    0.001869346    0.000731950
      3        1          -0.001044410    0.001868417   -0.000732684
      4        6           0.005100962    0.010059250   -0.000001255
      5        1          -0.001655012   -0.002446711    0.000458482
      6        1          -0.001654116   -0.002447274   -0.000457709
      7        6          -0.007458942   -0.010661870   -0.000003927
      8        1           0.001816238    0.002727863   -0.000633185
      9        1           0.001814122    0.002728650    0.000633720
     10        6           0.008439769    0.011019574   -0.000003886
     11        1          -0.002036079   -0.002799779    0.000696687
     12        1          -0.002036103   -0.002812956   -0.000688718
     13       17          -0.004032297    0.000534647   -0.000000152
     14        6          -0.008425477   -0.010932063    0.000017232
     15        1           0.002043857    0.002931211   -0.000728810
     16        1           0.002047880    0.002921335    0.000724077
     17        6           0.008686308    0.009496700   -0.000027182
     18        1          -0.001939619   -0.002556700   -0.000500167
     19        1          -0.001940443   -0.002557454    0.000510581
     20        6          -0.010921591   -0.001083857    0.000008303
     21        1           0.001969122    0.000833396    0.000835555
     22        1           0.001134689   -0.000361342    0.000000336
     23        1           0.001967818    0.000829931   -0.000840544
 -------------------------------------------------------------------
 Cartesian Forces:  Max     0.011019574 RMS     0.004315938

 GradGradGradGradGradGradGradGradGradGradGradGradGradGradGradGradGradGrad
 Berny optimization.
 Using GEDIIS/GDIIS optimizer.
 FormGI is forming the generalized inverse of G from B-inverse, IUseBI=4.
 Internal  Forces:  Max     0.005874775 RMS     0.001615762
 Search for a local minimum.
 Step number   2 out of a maximum of  128
 All quantities printed in internal units (Hartrees-Bohrs-Radians)
 Mixed Optimization -- RFO/linear search
 Update second derivatives using D2CorX and points    1    2
 DE= -9.33D-03 DEPred=-8.32D-03 R= 1.12D+00
 TightC=F SS=  1.41D+00  RLast= 2.65D-01 DXNew= 5.0454D-01 7.9588D-01
 Trust test= 1.12D+00 RLast= 2.65D-01 DXMaxT set to 5.05D-01
 ITU=  1  0
 Use linear search instead of GDIIS.
     Eigenvalues ---    0.00237   0.00237   0.00237   0.00237   0.00237
     Eigenvalues ---    0.00237   0.03495   0.03502   0.03550   0.03550
     Eigenvalues ---    0.03647   0.04492   0.04785   0.04790   0.04795
     Eigenvalues ---    0.04819   0.05412   0.05429   0.05602   0.05757
     Eigenvalues ---    0.07951   0.08101   0.08109   0.08189   0.08201
     Eigenvalues ---    0.11924   0.12046   0.12048   0.12112   0.12121
     Eigenvalues ---    0.15316   0.16000   0.16000   0.16000   0.16053
     Eigenvalues ---    0.21872   0.21943   0.21952   0.21960   0.22237
     Eigenvalues ---    0.22983   0.25122   0.28519   0.28519   0.28519
     Eigenvalues ---    0.28519   0.28573   0.29574   0.36917   0.37230
     Eigenvalues ---    0.37230   0.37230   0.37230   0.37230   0.37230
     Eigenvalues ---    0.37230   0.37230   0.37230   0.37230   0.37230
     Eigenvalues ---    0.37230   0.37230   0.38511
 RFO step:  Lambda=-1.36357736D-03 EMin= 2.36824055D-03
 Quartic linear search produced a step of  0.28727.
 Iteration  1 RMS(Cart)=  0.01127112 RMS(Int)=  0.00015865
 Iteration  2 RMS(Cart)=  0.00021589 RMS(Int)=  0.00010036
 Iteration  3 RMS(Cart)=  0.00000002 RMS(Int)=  0.00010036
 Variable       Old X    -DE/DX   Delta X   Delta X   Delta X     New X
                                 (Linear)    (Quad)   (Total)
    R1        2.05506   0.00118   0.00950  -0.00319   0.00631   2.06137
    R2        2.05506   0.00118   0.00949  -0.00319   0.00631   2.06137
    R3        2.86982  -0.00561  -0.01159  -0.01628  -0.02787   2.84196
    R4        3.37125   0.00404   0.01302   0.00752   0.02054   3.39179
    R5        2.05967   0.00210   0.01082  -0.00105   0.00977   2.06944
    R6        2.05967   0.00210   0.01082  -0.00105   0.00977   2.06944
    R7        2.88831  -0.00487  -0.00628  -0.01703  -0.02331   2.86501
    R8        2.06296   0.00244   0.01176  -0.00059   0.01117   2.07413
    R9        2.06295   0.00244   0.01176  -0.00059   0.01118   2.07413
[...]
 1,0.00005298,0.00031425,0.03613472,-0.00138822,-0.00001165,0.00022293,
 0.00091087,-0.00025532,0.00022814,0.00091412,0.00026075,-0.00337332,-0
 .07846283,0.00000642,-0.01566734,-0.00064704,0.00003792,-0.01571405,-0
 .00064756,-0.00003924,0.00132714,-0.00067667,-0.00000027,0.02999063,0.
 50862311,0.00000966,0.00000606,0.00069034,0.00000181,0.00009420,-0.000
 02195,-0.00000311,-0.00007086,-0.00004550,-0.00002973,-0.00002021,-0.0
 0062025,-0.00020976,-0.00014950,0.00030085,0.00022903,0.00016747,0.000
 29825,-0.00007075,-0.00001756,-0.00059325,-0.00094108,0.00055424,-0.00
 015019,0.00097095,-0.00053618,-0.00008019,0.00002712,-0.00003750,-0.07
 862781,0.02833348,-0.00054854,0.00015994,-0.02829070,0.00059208,0.0002
 4274,-0.00000686,-0.00001426,-0.00001057,0.00000551,0.00004213,0.56870
 862,0.00003027,0.00007237,-0.00011108,0.00000102,0.00000015,0.00000934
 ,-0.00002259,0.00006210,-0.00000896,-0.00007216,-0.00002122,-0.0002259
 8,0.00023738,0.00005070,-0.00016277,-0.00003389,-0.00003598,0.00000448
 ,0.00153485,-0.00148162,0.00084628,-0.00014076,0.00088015,-0.00061547,
 -0.00003162,0.00009617,-0.00004102,-0.01408401,-0.01566325,0.02817604,
 -0.00653421,0.00045494,-0.00025630,0.00198432,-0.00000551,-0.00049454,
 0.00003006,-0.00001180,-0.00000295,-0.07430605,-0.04101253,0.06636551,
 0.08468024,-0.00001193,-0.00001720,0.00000399,0.00000326,0.00000067,-0
 .00000039,-0.00000085,0.00000068,0.00000385,0.00010128,0.00012158,-0.0
 0016349,0.00007374,-0.00009708,0.00004150,-0.00003023,-0.00001532,0.00
 000360,0.00024314,0.00049230,-0.00066881,0.00017489,0.00042335,0.00011
 356,-0.00001905,-0.00000973,-0.00007474,-0.00027847,-0.00087758,-0.000
 55220,0.00044085,0.00026367,-0.00008927,-0.00000264,0.00004579,0.00024
 124,-0.00004487,0.00001379,-0.00000042,-0.04137713,-0.10165201,0.09493
 671,0.04378265,0.11461920,0.00006333,0.00001861,-0.00002968,-0.0000034
 5,-0.00000565,-0.00001599,0.00001708,-0.00001855,0.00002574,-0.0000071
 6,-0.00034470,0.00033617,-0.00018417,0.00005056,-0.00002727,-0.0000102
 9,-0.00000878,-0.00003783,-0.00037785,0.00024920,-0.00012369,0.0003610
 0,-0.00057650,0.00023665,0.00006020,0.00005747,-0.00006972,0.00031410,
 0.00015780,0.00017544,-0.00026567,-0.00011838,0.00156860,0.00050963,-0
 .00023861,0.00058194,0.00003451,-0.00002312,0.00000320,0.06682976,0.09
 475542,-0.20561645,-0.07480318,-0.10667562,0.22113915,0.00002871,0.000
 08933,0.00011265,-0.00002391,0.00005415,0.00000300,-0.00000208,-0.0000
 0559,-0.00000566,-0.00005010,-0.00001412,0.00022021,-0.00004425,-0.000
 04036,-0.00000457,0.00022763,0.00004584,0.00016880,0.00153672,-0.00148
 251,-0.00084280,-0.00003202,0.00009733,0.00004665,-0.00014346,0.000878
 07,0.00060810,-0.01408502,-0.01570158,-0.02815667,0.00197979,-0.000009
 75,0.00050228,-0.00653688,0.00045152,0.00026117,0.00003402,-0.00001146
 ,0.00000279,-0.07434594,-0.04114711,-0.06634654,0.00326072,0.00535178,
 0.00859789,0.08472379,-0.00000761,-0.00000949,0.00000108,-0.00000344,-
 0.00000572,-0.00001095,0.00000020,-0.00000249,0.00000252,0.00010812,0.
 00012393,0.00015822,-0.00003274,-0.00001596,-0.00000235,0.00007044,-0.
 00009938,-0.00003761,0.00025158,0.00049720,0.00067119,-0.00002106,-0.0
 0001031,0.00008401,0.00016985,0.00041904,-0.00012325,-0.00027963,-0.00
 087467,0.00054084,-0.00000424,0.00004465,-0.00023004,0.00044201,0.0002
 6336,0.00009310,-0.00004421,0.00001659,-0.00000016,-0.04151823,-0.1019
 5994,-0.09510627,0.00533934,0.00705690,0.01228565,0.04393817,0.1149696
 2,-0.00007178,-0.00001715,-0.00001834,-0.00001556,-0.00000006,0.000006
 16,0.00000076,-0.00000401,-0.00000826,0.00003967,0.00036825,0.00031772
 ,-0.00000057,-0.00000031,-0.00003127,0.00017167,-0.00005914,-0.0000168
 3,0.00041855,-0.00023071,-0.00011099,-0.00007081,-0.00006068,-0.000036
 45,-0.00038031,0.00055936,0.00019584,-0.00031657,-0.00012110,0.0001524
 8,-0.00051755,0.00022078,0.00062826,0.00026478,0.00010299,0.00155244,-
 0.00002904,0.00003703,0.00000259,-0.06681888,-0.09490829,-0.20529131,-
 0.00861239,-0.01232581,-0.02099779,0.07477890,0.10684022,0.22076589,-0
 .00032456,-0.00031598,0.00001690,-0.00000637,-0.00002792,0.00001142,0.
 00000018,-0.00002159,-0.00002502,0.00004040,0.00225282,-0.00000689,0.0
 0005238,-0.00004046,0.00007589,0.00004624,-0.00004996,-0.00007608,-0.0
 0625129,-0.00136634,-0.00000606,0.00002345,0.00003825,-0.00028924,0.00
 002472,0.00003451,0.00030665,-0.01583628,0.03521327,-0.00004348,0.0015
 5311,0.00042132,-0.00047339,0.00155366,0.00041991,0.00048550,-0.000456
 65,0.00022034,-0.00000259,-0.08948455,0.03554356,-0.00007250,0.0028168
 5,-0.00946336,-0.00006733,0.00283437,-0.00945988,0.00012710,0.49433888
 ,0.00007957,-0.00022949,-0.00000265,-0.00000542,0.00000822,0.00001780,
 -0.00001083,0.00000939,-0.00001681,-0.00048843,0.00088514,-0.00000601,
 0.00006210,0.00000083,0.00002124,0.00006466,0.00000543,-0.00001272,-0.
 00196066,-0.00027688,0.00001076,0.00018237,-0.00006760,-0.00015745,0.0
 0017787,-0.00007147,0.00014594,0.00592244,-0.00038837,-0.00000894,-0.0
 0148399,0.00048601,0.00027274,-0.00148336,0.00048867,-0.00026383,-0.00
 035427,0.00011625,0.00000088,0.03439162,-0.18419280,0.00008956,0.00551
 933,-0.01787639,0.00040480,0.00553015,-0.01792956,-0.00038833,0.035664
 40,0.50488773,0.00001050,0.00001717,-0.00002460,-0.00000444,-0.0000080
 9,0.00000625,-0.00000574,0.00000422,0.00000837,0.00000365,-0.00000593,
 0.00069722,-0.00010439,0.00000278,-0.00003530,0.00009789,-0.00000320,-
 0.00003075,-0.00000667,-0.00000660,-0.00067368,-0.00009366,-0.00025652
 ,0.00031139,0.00009836,0.00025846,0.00031972,0.00000726,-0.00000756,-0
 .00071755,0.00081160,-0.00068585,-0.00006326,-0.00081265,0.00069227,-0
 .00005684,0.00000149,-0.00000298,-0.00001452,-0.00002209,0.00008646,-0
 .08029168,-0.00985250,0.02666914,0.00037844,0.00983506,-0.02664307,0.0
 0040565,-0.00001652,0.00004305,0.57443203,0.00000915,0.00000882,-0.000
 00963,0.00000497,-0.00000395,0.00000212,-0.00000323,0.00000107,0.00000
 018,-0.00000261,-0.00007001,-0.00004616,-0.00000141,0.00000060,0.00000
 653,-0.00002336,0.00000634,-0.00000175,0.00005083,0.00014610,0.0001039
 5,0.00000506,-0.00001963,-0.00000721,-0.00010917,-0.00004330,-0.000097
 23,0.00111832,0.00023288,0.00096036,-0.00001584,-0.00003575,0.00005911
 ,-0.00012720,0.00015843,-0.00035688,0.00001097,-0.00000819,0.00000294,
 0.00292743,0.00544161,0.00975779,0.00025030,-0.00068064,-0.00036504,-0
 .00063705,0.00241143,-0.00000122,-0.07527335,-0.04165221,-0.06719092,0
 .08542073,-0.00003132,0.00001675,-0.00000373,-0.00000786,0.00000367,0.
 00000199,0.00000076,-0.00000502,0.00000004,0.00004964,0.00004252,0.000
 09492,-0.00000371,-0.00000040,-0.00000570,0.00006208,-0.00001053,0.000
 00605,0.00004290,-0.00001011,0.00026695,-0.00002873,-0.00003766,-0.000
 00191,-0.00005314,0.00026989,0.00016734,-0.00164849,0.00082213,-0.0005
 5793,0.00007915,0.00000529,0.00005439,0.00088560,0.00040146,0.00055147
 ,0.00002018,0.00000086,0.00000304,-0.00949106,-0.01812954,-0.02687342,
 -0.00071515,0.00131959,0.00044518,0.00249862,-0.00551432,0.00020191,-0
 .04190230,-0.10406785,-0.09606654,0.04419724,0.11613893,-0.00000728,0.
 00001017,0.00000716,-0.00000116,0.00000895,-0.00000059,0.00000476,-0.0
 0000148,-0.00000123,0.00002000,-0.00009556,-0.00002528,0.00000762,-0.0
 0000223,-0.00001281,0.00001559,-0.00001070,0.00001468,0.00034609,0.000
 12085,0.00031331,-0.00001323,0.00000263,-0.00001902,-0.00010232,0.0001
 7801,-0.00001227,-0.00031376,0.00022447,-0.00006473,-0.00005212,-0.000
 08069,-0.00006758,0.00061192,-0.00014937,0.00018213,0.00003895,-0.0000
 0389,0.00000097,0.00021561,-0.00064124,0.00033969,0.00037054,-0.000448
 82,0.00064401,0.00004783,0.00024916,0.00154785,-0.06810726,-0.09620009
 ,-0.20815817,0.07584956,0.10770118,0.22317994,0.00000822,-0.00000091,0
 .,0.00000102,0.00000523,0.00000592,0.00000309,-0.00000167,-0.00000084,
 -0.00000915,-0.00006885,0.00004288,-0.00002250,0.00000370,0.00000624,0
 .00000434,0.00000445,-0.00000482,0.00005347,0.00014352,-0.00009984,-0.
 00010760,-0.00004234,0.00008946,0.00000311,-0.00002001,0.00000452,0.00
 111845,0.00023859,-0.00095475,-0.00012942,0.00015543,0.00036291,-0.000
 01689,-0.00003731,-0.00006704,0.00001097,-0.00000721,-0.00000107,0.002
 92411,0.00542453,-0.00975074,-0.00063205,0.00241340,-0.00001276,0.0002
 4543,-0.00068182,0.00035869,-0.07523878,-0.04151406,0.06722145,0.00335
 194,0.00549691,-0.00855343,0.08538307,-0.00003281,0.00000366,0.0000004
 2,-0.00000149,0.00000244,0.00000564,-0.00000216,0.00000447,-0.00000239
 ,0.00004075,0.00004380,-0.00007711,0.00006764,-0.00000708,-0.00001377,
 -0.00000031,-0.00000200,-0.00000583,0.00004611,-0.00001310,-0.00028068
 ,-0.00005832,0.00026320,-0.00016407,-0.00002418,-0.00003107,0.00001140
 ,-0.00164869,0.00083080,0.00057886,0.00088533,0.00039921,-0.00055617,0
 .00007493,0.00000110,-0.00007570,0.00001989,0.00000223,-0.00000388,-0.
 00948509,-0.01808617,0.02691947,0.00249741,-0.00551764,-0.00019718,-0.
 00071437,0.00132241,-0.00044810,-0.04176687,-0.10374992,0.09591932,0.0
 0551200,0.00717310,-0.01233513,0.04404322,0.11577946,0.00000075,-0.000
 01612,0.00001349,0.00000167,-0.00000490,-0.00000737,-0.00000047,-0.000
 00646,-0.00000244,-0.00001576,0.00010078,-0.00004800,-0.00001728,0.000
 00762,0.00002659,-0.00000736,0.00000319,-0.00000208,-0.00033653,-0.000
 11296,0.00032612,0.00010481,-0.00017247,-0.00000820,0.00000442,-0.0000
 1218,-0.00003252,0.00030892,-0.00022458,-0.00009089,-0.00061508,0.0001
 4446,0.00020072,0.00005629,0.00007880,-0.00005529,-0.00003916,0.000006
 96,0.00000165,-0.00020556,0.00066713,0.00026959,-0.00004836,-0.0002350
 8,0.00155471,-0.00036682,0.00045004,0.00065955,0.06814391,0.09604427,-
 0.20852038,0.00853340,0.01228047,-0.02108457,-0.07588214,-0.10753666,0
 .22358041,-0.00003465,0.00002465,-0.00000272,0.00000254,-0.00000447,-0
 .00000123,-0.00000677,0.00000023,0.00000150,-0.00002882,0.00009520,-0.
 00001860,0.00000864,-0.00000107,0.00001075,0.00001362,0.00000577,0.000
 00869,-0.00010589,-0.00046227,0.00000696,0.00000898,0.00004176,-0.0000
 3493,-0.00000073,0.00003066,0.00002453,0.00003282,0.00112830,-0.000010
 26,-0.00004675,0.00010623,-0.00004416,-0.00004158,0.00010937,0.0000608
 9,0.00001728,-0.00000942,0.00000185,-0.01795100,0.00586959,-0.00001620
 ,0.00109623,-0.00153261,0.00016848,0.00108968,-0.00153172,-0.00015781,
 -0.20343507,0.00045290,0.00001470,-0.01362458,0.00037610,0.00016548,-0
 .01361011,0.00038434,-0.00016253,0.47745149,0.00002015,0.00021588,0.00
 002068,0.00001354,-0.00002050,-0.00002564,-0.00000546,0.00000352,0.000
 00128,0.00012575,-0.00086898,-0.00005598,-0.00003735,-0.00000159,-0.00
 000866,-0.00003501,0.00000925,0.00006452,0.00217695,0.00063310,0.00003
 485,-0.00004867,0.00009225,0.00006513,-0.00007709,0.00005256,-0.000092
 72,0.00076915,-0.00666272,-0.00006239,0.00001982,0.00009899,-0.0003509
 3,0.00003619,0.00010487,0.00042783,0.00025857,-0.00011730,0.00000134,0
 .03669506,-0.00129066,-0.00007618,0.00030227,0.00115171,-0.00027235,0.
 00030751,0.00114865,0.00032653,-0.00345203,-0.07802157,-0.00002270,-0.
 01614593,0.00070659,0.00080842,-0.01608368,0.00072275,-0.00079090,-0.0
 0417481,0.56465226,0.00000436,-0.00000351,-0.00000089,0.00000894,0.000
 00840,0.00001122,-0.00000656,0.00001204,-0.00000831,-0.00002358,-0.000
 01515,-0.00004970,0.00000537,0.00000509,0.00001910,0.00001205,0.000007
 67,0.00001569,-0.00002980,-0.00001217,0.00069350,0.00005396,-0.0000829
 7,-0.00007255,-0.00003352,0.00009652,-0.00002223,0.00000270,-0.0000169
 3,-0.00045204,-0.00025614,-0.00015281,0.00028488,0.00026419,0.00017796
 ,0.00032799,-0.00000430,-0.00000941,-0.00000021,-0.00001637,-0.0000040
 2,0.00002505,-0.00089588,0.00023923,0.00005535,0.00089094,-0.00024753,
 0.00004072,-0.00001238,0.00000906,-0.07803777,-0.02833330,0.00161605,0
 .00106419,0.02837673,-0.00161138,0.00104599,0.00000697,-0.00004763,0.5
 5114358,0.00000137,-0.00000861,-0.00000350,-0.00000158,0.00000528,0.00
 000296,0.00000196,-0.00000028,-0.00000048,0.00001165,-0.00001876,0.000
 00502,-0.00000154,-0.00000064,-0.00000383,0.00000931,-0.00000559,0.000
 00199,0.00007752,0.00005591,0.00010110,-0.00000255,-0.00000357,-0.0000
 0177,-0.00002487,0.00006627,0.00001512,-0.00006733,-0.00004499,0.00023
 391,-0.00003371,-0.00003684,-0.00000921,0.00024734,0.00006555,0.000171
 32,0.00000162,0.00000342,0.00000116,0.00178142,-0.00153200,-0.00083738
 ,-0.00001974,0.00010822,0.00003151,-0.00016374,0.00092332,0.00061350,-
 0.01351675,-0.01578015,-0.02828848,-0.00679708,0.00064219,0.00044248,0
 .00192659,-0.00009090,0.00052170,-0.07748417,-0.04261212,-0.07362758,0
 .08702726,0.00002279,-0.00002028,0.00000174,-0.00000693,-0.00000101,-0
 .00000409,0.00000263,-0.00000518,0.00000339,0.00001170,0.00003772,0.00
 000458,-0.00000276,-0.00000035,-0.00000511,-0.00000834,-0.00000823,-0.
 00000737,-0.00004977,-0.00001067,-0.00001781,-0.00000695,-0.00000899,0
 .00002081,0.00000261,-0.00000306,-0.00000643,0.00016514,0.00013095,0.0
 0015766,-0.00004202,-0.00002867,0.00001352,0.00005932,-0.00011091,-0.0
 0006405,-0.00003190,0.00001655,0.00000006,0.00031185,0.00063629,0.0009
 5433,-0.00005595,-0.00002068,0.00003803,0.00011091,0.00040454,-0.00017
 505,-0.00045012,-0.00091566,0.00055721,0.00014841,0.00072380,0.0003853
 6,-0.00015089,-0.00013005,-0.00008745,-0.04286215,-0.10204926,-0.09870
 350,0.04780444,0.10670089,-0.00000197,-0.00002304,-0.00000099,-0.00000
 705,0.00000035,0.00000052,0.00000590,-0.00000570,-0.00000008,0.0000093
 3,0.00004801,0.00002312,0.00000183,0.00000024,-0.00001176,0.00000056,-
 0.00000770,-0.00001050,-0.00006251,-0.00000925,-0.00004836,-0.00001450
 ,-0.00000873,0.00001340,-0.00000898,0.00001162,0.00001966,0.00005606,0
 .00033351,0.00029473,0.00000903,-0.00000787,-0.00001186,0.00016617,-0.
 00005074,-0.00004322,-0.00001256,0.00001670,-0.00000002,0.00047036,-0.
 00014667,0.00002672,-0.00008910,-0.00005524,-0.00011000,-0.00040915,0.
 00053938,0.00011693,-0.00025485,0.00035590,0.00070864,0.00036367,0.000
 06210,0.00151568,-0.00062121,0.00024036,0.00062177,-0.07367941,-0.0982
 2926,-0.21475562,0.08167719,0.10848961,0.23064107,0.00002499,-0.000097
 58,0.00000245,-0.00000440,0.00000120,0.00000360,-0.00000108,0.00000026
 ,-0.00000505,-0.00000817,0.00032435,0.00000542,0.00000603,-0.00000312,
 0.00000861,0.00000381,-0.00000587,-0.00001467,-0.00080781,-0.00022435,
 -0.00000070,0.00001781,-0.00001642,-0.00002954,0.00002085,-0.00001329,
 0.00003288,0.00005691,0.00228981,-0.00000157,0.00003501,-0.00004044,0.
 00010946,0.00003344,-0.00004169,-0.00011280,-0.00013837,0.00005458,-0.
 00000084,-0.00715851,-0.00221879,0.00000580,0.00011853,-0.00017582,-0.
 00026267,0.00012186,-0.00017649,0.00026174,-0.00994876,0.03241718,-0.0
 0002622,0.00153392,-0.00037972,-0.00046031,0.00153153,-0.00038218,0.00
 046186,-0.07591247,0.08440378,-0.00006382,0.00349433,-0.01108237,0.001
 28934,0.08349113,-0.00004844,0.00002871,-0.00001629,0.00000343,0.00001
 112,0.00001109,0.00000254,0.00000224,0.00000399,-0.00004370,-0.0000779
 1,0.00001265,0.00000910,0.00000461,-0.00000429,0.00001366,0.00000903,-
 0.00000562,0.00006995,0.00007681,-0.00000704,-0.00000610,-0.00001001,-
 0.00000418,-0.00000156,0.00000043,0.00000153,-0.00036655,-0.00008653,0
 .00003057,0.00008287,0.00001185,-0.00004068,0.00007972,0.00001226,0.00
 001370,0.00007525,-0.00002210,0.00000178,0.00066098,0.00104117,0.00003
 526,-0.00016282,0.00017388,-0.00015666,-0.00017367,0.00017422,0.000123
 17,-0.00102892,0.00181157,0.00000796,0.00053522,0.00027539,0.00019060,
 0.00053429,0.00027380,-0.00020064,0.08466465,-0.27883230,0.00020163,0.
 00433498,-0.01239657,0.00113130,-0.09355354,0.29986980,-0.00000453,-0.
 00001498,-0.00000568,-0.00000072,0.00000269,0.00000125,0.00000601,0.00
 000059,0.00000047,-0.00000501,0.00000448,0.00001505,0.00000739,0.00000
 164,-0.00000774,-0.00000014,-0.00000130,-0.00001175,0.00001158,0.00000
 409,0.00000726,-0.00000164,-0.00000279,0.00000922,-0.00000468,-0.00000
 054,-0.00000131,-0.00000630,0.00000797,0.00062867,-0.00010197,0.000011
 56,-0.00001897,0.00010149,-0.00002035,-0.00003867,-0.00000062,0.000003
 96,-0.00000147,-0.00000458,-0.00000299,0.00028240,0.00003315,-0.000425
 80,0.00020905,-0.00002882,0.00042921,0.00021657,0.00000482,-0.00000377
 ,-0.00133412,0.00015850,0.00030282,0.00001662,-0.00015843,-0.00031146,
 0.00002781,-0.00005699,0.00020333,-0.04619917,0.01009057,-0.02419034,0
 .00104610,0.00006871,-0.00020314,0.04413249,0.00000017,-0.00001910,-0.
 00000042,0.00000008,0.00000578,0.00000449,0.00000346,0.00000409,-0.000
 00164,0.00000359,-0.00001885,0.00001547,0.00001478,-0.00000268,-0.0000
 1014,0.00000146,-0.00000080,-0.00000766,0.00008190,0.00005733,-0.00010
 621,-0.00003047,0.00005921,-0.00001213,0.00000127,0.00000249,0.0000033
 3,-0.00007236,-0.00004453,-0.00021556,0.00025096,0.00006599,-0.0001800
 4,-0.00003547,-0.00003850,-0.00000598,0.00000028,0.00000501,-0.0000019
 4,0.00177984,-0.00153231,0.00086869,-0.00016367,0.00092438,-0.00062792
 ,-0.00001828,0.00010662,-0.00004287,-0.01351183,-0.01573121,0.02832231
 ,0.00193129,-0.00008988,-0.00052557,-0.00679884,0.00063576,-0.00044066
 ,-0.07743868,-0.04245658,0.07367701,0.00353269,0.00611034,-0.00888816,
 0.00348944,0.00431864,-0.01010777,0.08697838,0.00002312,-0.00003050,-0
 .00000255,-0.00000291,0.00000550,0.00000390,0.00000202,0.00000045,0.00
 000120,-0.00000262,0.00003291,0.00002346,0.00000052,0.00000135,-0.0000
 0586,0.00000085,-0.00000396,-0.00001198,-0.00005613,-0.00001538,-0.000
 00477,-0.00000251,-0.00001009,0.00000967,0.00000422,0.00000263,0.00000
 160,0.00016425,0.00012681,-0.00013728,0.00006402,-0.00010636,0.0000471
 4,-0.00004522,-0.00002767,-0.00002523,-0.00003377,0.00001439,-0.000002
 73,0.00031348,0.00063210,-0.00094104,0.00010824,0.00040051,0.00017338,
 -0.00005284,-0.00001928,-0.00004152,-0.00046264,-0.00091168,-0.0005489
 8,-0.00014054,-0.00012456,0.00008940,0.00014547,0.00071459,-0.00038332
 ,-0.04271125,-0.10172751,0.09853334,0.00612488,0.00705884,-0.01268487,
 -0.01107946,-0.01235149,0.02420514,0.04763880,0.10633842,-0.00000128,0
 .00002958,-0.00000363,0.00000023,-0.00000536,-0.00000671,-0.00000151,-
 0.00000317,0.00000580,0.00001025,-0.00003697,-0.00000709,-0.00001219,-
 0.00000204,0.00000368,-0.00000610,-0.00000078,0.00000619,0.00007731,0.
 00001418,-0.00003603,0.00001128,-0.00000562,0.00002494,0.00000105,-0.0
 0000433,-0.00000822,-0.00005359,-0.00031650,0.00027283,-0.00017490,0.0
 0003918,-0.00001254,-0.00000916,0.00000164,-0.00000924,0.00001656,-0.0
 0001188,0.00000243,-0.00047715,0.00014914,0.00000495,0.00041513,-0.000
 53713,0.00011998,0.00008477,0.00005663,-0.00009740,0.00028138,-0.00035
 541,0.00069092,0.00061122,-0.00024668,0.00062002,-0.00036173,-0.000055
 96,0.00152335,0.07371404,0.09808141,-0.21512876,0.00886269,0.01263490,
 -0.02003593,-0.00127169,-0.00112669,0.00102593,-0.08171662,-0.10829813
 ,0.23104453\\0.00000949,0.00000961,0.00000037,0.00000625,0.00000493,-0
 .00000004,0.00000623,0.00000492,-0.00000014,0.00000361,0.00000199,-0.0
 0000012,0.00000107,0.00000719,0.00000008,0.00000122,0.00000720,-0.0000
 0031,0.00000264,0.00000204,0.00000022,0.00000339,0.00000060,-0.0000002
 3,0.00000337,0.00000070,-0.00000005,-0.00000120,0.00000003,-0.00000005
 ,-0.00000215,0.00000183,0.00000004,-0.00000208,0.00000189,-0.00000025,
 0.00000256,0.00001054,0.00000024,-0.00000129,-0.00000131,-0.00000010,0
 .00000004,-0.00000437,-0.00000018,0.00000008,-0.00000438,0.,-0.0000050
 2,-0.00000548,0.00000021,-0.00000577,-0.00000263,-0.00000018,-0.000005
 85,-0.00000272,0.00000018,-0.00000427,-0.00000672,0.00000030,-0.000002
 74,-0.00000845,0.00000022,-0.00000673,-0.00000901,0.00000004,-0.000002
 85,-0.00000841,-0.00000026\\\@


 ALL MEN WHO EXPLORE
 DEPLORE
 THAT FRUSTRATING HURDLE
 THE GIRDLE.

         -- COLIN FLETCHER
 Job cpu time:       3 days 11 hours 57 minutes 16.4 seconds.
 File lengths (MBytes):  RWF=   1263 Int=      0 D2E=      0 Chk=     37 Scr=      1
 Normal termination of Gaussian 09 at Fri Jul  7 03:05:33 2017.
399518.78user 964.39system 4:38:33elapsed 2396%CPU (0avgtext+0avgdata 12736020maxresident)k
624616inputs+15955664outputs (495major+458666890minor)pagefaults 0swaps
