 Entering Gaussian System, Link 0=g09
 Initial command:
 /panfs/roc/msisoft/gaussian/g09.e01_mesabi/g09/l1.exe "/scratch/graha682/4090657.mesabim3.msi.umn.edu/Gau-4525.inp" -scrdir="/scratch/graha682/4090657.mesabim3.msi.umn.edu/"
 Entering Link 1 = /panfs/roc/msisoft/gaussian/g09.e01_mesabi/g09/l1.exe PID=      4526.
  
 Copyright (c) 1988,1990,1992,1993,1995,1998,2003,2009,2015,
            Gaussian, Inc.  All Rights Reserved.
  
 This is part of the Gaussian(R) 09 program.  It is based on
 the Gaussian(R) 03 system (copyright 2003, Gaussian, Inc.),
 the Gaussian(R) 98 system (copyright 1998, Gaussian, Inc.),
 the Gaussian(R) 94 system (copyright 1995, Gaussian, Inc.),
 the Gaussian 92(TM) system (copyright 1992, Gaussian, Inc.),
 the Gaussian 90(TM) system (copyright 1990, Gaussian, Inc.),
 the Gaussian 88(TM) system (copyright 1988, Gaussian, Inc.),
 the Gaussian 86(TM) system (copyright 1986, Carnegie Mellon
 University), and the Gaussian 82(TM) system (copyright 1983,
 Carnegie Mellon University). Gaussian is a federally registered
 trademark of Gaussian, Inc.
  
 This software contains proprietary and confidential information,
 including trade secrets, belonging to Gaussian, Inc.
  
 This software is provided under written license and may be
 used, copied, transmitted, or stored only in accord with that
 written license.
  
 The following legend is applicable only to US Government
 contracts under FAR:
  
                    RESTRICTED RIGHTS LEGEND
  
 Use, reproduction and disclosure by the US Government is
 subject to restrictions as set forth in subparagraphs (a)
 and (c) of the Commercial Computer Software - Restricted
 Rights clause in FAR 52.227-19.
  
 Gaussian, Inc.
 340 Quinnipiac St., Bldg. 40, Wallingford CT 06492
  
  
 ---------------------------------------------------------------
 Warning -- This program may not be used in any manner that
 competes with the business of Gaussian, Inc. or will provide
 assistance to any competitor of Gaussian, Inc.  The licensee
 of this program is prohibited from giving any competitor of
 Gaussian, Inc. access to this program.  By using this program,
 the user acknowledges that Gaussian, Inc. is engaged in the
 business of creating and licensing software in the field of
 computational chemistry and represents and warrants to the
 licensee that it is not a competitor of Gaussian, Inc. and that
 it will not use this program in any manner prohibited above.
 ---------------------------------------------------------------
  

 Cite this work as:
 Gaussian 09, Revision E.01,
 M. J. Frisch, G. W. Trucks, H. B. Schlegel, G. E. Scuseria, 
 M. A. Robb, J. R. Cheeseman, G. Scalmani, V. Barone, B. Mennucci, 
 G. A. Petersson, H. Nakatsuji, M. Caricato, X. Li, H. P. Hratchian, 
 A. F. Izmaylov, J. Bloino, G. Zheng, J. L. Sonnenberg, M. Hada, 
 M. Ehara, K. Toyota, R. Fukuda, J. Hasegawa, M. Ishida, T. Nakajima, 
 Y. Honda, O. Kitao, H. Nakai, T. Vreven, J. A. Montgomery, Jr., 
 J. E. Peralta, F. Ogliaro, M. Bearpark, J. J. Heyd, E. Brothers, 
 K. N. Kudin, V. N. Staroverov, T. Keith, R. Kobayashi, J. Normand, 
 K. Raghavachari, A. Rendell, J. C. Burant, S. S. Iyengar, J. Tomasi, 
 M. Cossi, N. Rega, J. M. Millam, M. Klene, J. E. Knox, J. B. Cross, 
 V. Bakken, C. Adamo, J. Jaramillo, R. Gomperts, R. E. Stratmann, 
 O. Yazyev, A. J. Austin, R. Cammi, C. Pomelli, J. W. Ochterski, 
 R. L. Martin, K. Morokuma, V. G. Zakrzewski, G. A. Voth, 
 P. Salvador, J. J. Dannenberg, S. Dapprich, A. D. Daniels, 
 O. Farkas, J. B. Foresman, J. V. Ortiz, J. Cioslowski, 
 and D. J. Fox, Gaussian, Inc., Wallingford CT, 2013.
 
 ******************************************
 Gaussian 09:  ES64L-G09RevE.01 30-Nov-2015
                16-Aug-2017 
 ******************************************
 %LindaWorkers=in-cn0620
 %NProcShared=24
 Will use up to   24 processors via shared memory.
 %Mem=59800mb
 %chk=201707_augccpVDZ_m06_pentacene.chk
 SetLPE:  input flags=" -workerwait 900 -opt "Tsnet.Node.lindarsharg: ssh " "
 SetLPE:    new flags=" -workerwait 900 -opt "Tsnet.Node.lindarsharg: ssh "  -nodelist 'in-cn0620'"
 Will use up to    1 processors via Linda.
 ---------------------------------------
 # opt aug-cc-pvdz geom=connectivity m06
 ---------------------------------------
 1/14=-1,18=20,19=15,26=3,38=1,57=2/1,3;
 2/9=110,12=2,17=6,18=5,40=1/2;
 3/5=16,7=10,11=2,16=1,25=1,30=1,71=1,74=-54/1,2,3;
 4//1;
 5/5=2,38=5/2;
 6/7=2,8=2,9=2,10=2,28=1/1;
 7//1,2,3,16;
 1/14=-1,18=20,19=15,26=3/3(2);
 2/9=110/2;
 99//99;
 2/9=110/2;
 3/5=16,7=10,11=2,16=1,25=1,30=1,71=1,74=-54/1,2,3;
 4/5=5,16=3,69=1/1;
 5/5=2,38=5/2;
 7//1,2,3,16;
 1/14=-1,18=20,19=15,26=3/3(-5);
 2/9=110/2;
 6/7=2,8=2,9=2,10=2,19=2,28=1/1;
 99/9=1/99;
 ---------
 pentacene
 ---------
 Symbolic Z-matrix:
 Charge =  0 Multiplicity = 1
 C                    -4.92832   1.40706   0. 
 C                    -3.66829   0.72437   0. 
 C                    -3.66829  -0.72437   0. 
 C                    -4.92833  -1.40706   0. 
 C                    -6.1019   -0.71539   0. 
 C                    -6.1019    0.71539   0. 
 H                    -4.92272   2.5012    0. 
 H                    -4.92272  -2.5012    0. 
 H                    -7.05444  -1.2512    0. 
 H                    -7.05444   1.2512    0. 
 C                    -2.46131   1.40464   0. 
 C                    -1.22302   0.72525   0. 
 C                    -1.22302  -0.72525   0. 
 C                    -2.46131  -1.40464   0. 
 H                    -2.46202   2.50003   0. 
 H                    -2.46202  -2.50003   0. 
 C                     0.        1.40515   0. 
 C                     1.22302   0.72525   0. 
 C                     1.22302  -0.72525   0. 
 C                     0.       -1.40515   0. 
 H                     0.        2.50041   0. 
 H                     0.       -2.50041   0. 
 C                     2.46131   1.40464   0. 
 C                     2.46131  -1.40464   0. 
 H                     2.46202   2.50003   0. 
 H                     2.46202  -2.50003   0. 
 C                     4.92832   1.40706   0. 
 C                     6.1019    0.71539   0. 
 C                     6.1019   -0.71539   0. 
 C                     4.92833  -1.40706   0. 
 H                     4.92272   2.5012    0. 
 H                     7.05444   1.2512    0. 
 H                     7.05444  -1.2512    0. 
 H                     4.92272  -2.5012    0. 
 C                     3.66829  -0.72437   0. 
 C                     3.66829   0.72437   0. 
 

 GradGradGradGradGradGradGradGradGradGradGradGradGradGradGradGradGradGrad
 Berny optimization.
 Initialization pass.
                           ----------------------------
                           !    Initial Parameters    !
                           ! (Angstroms and Degrees)  !
 --------------------------                            --------------------------
 ! Name  Definition              Value          Derivative Info.                !
 --------------------------------------------------------------------------------
 ! R1    R(1,2)                  1.4331         estimate D2E/DX2                !
 ! R2    R(1,6)                  1.3622         estimate D2E/DX2                !
 ! R3    R(1,7)                  1.0942         estimate D2E/DX2                !
 ! R4    R(2,3)                  1.4487         estimate D2E/DX2                !
 ! R5    R(2,11)                 1.3855         estimate D2E/DX2                !
 ! R6    R(3,4)                  1.4331         estimate D2E/DX2                !
 ! R7    R(3,14)                 1.3855         estimate D2E/DX2                !
 ! R8    R(4,5)                  1.3622         estimate D2E/DX2                !
 ! R9    R(4,8)                  1.0942         estimate D2E/DX2                !
 ! R10   R(5,6)                  1.4308         estimate D2E/DX2                !
 ! R11   R(5,9)                  1.0929         estimate D2E/DX2                !
 ! R12   R(6,10)                 1.0929         estimate D2E/DX2                !
 ! R13   R(11,12)                1.4124         estimate D2E/DX2                !
 ! R14   R(11,15)                1.0954         estimate D2E/DX2                !
 ! R15   R(12,13)                1.4505         estimate D2E/DX2                !
 ! R16   R(12,17)                1.3993         estimate D2E/DX2                !
 ! R17   R(13,14)                1.4124         estimate D2E/DX2                !
 ! R18   R(13,20)                1.3993         estimate D2E/DX2                !
 ! R19   R(14,16)                1.0954         estimate D2E/DX2                !
 ! R20   R(17,18)                1.3993         estimate D2E/DX2                !
 ! R21   R(17,21)                1.0953         estimate D2E/DX2                !
 ! R22   R(18,19)                1.4505         estimate D2E/DX2                !
 ! R23   R(18,23)                1.4124         estimate D2E/DX2                !
 ! R24   R(19,20)                1.3993         estimate D2E/DX2                !
 ! R25   R(19,24)                1.4124         estimate D2E/DX2                !
 ! R26   R(20,22)                1.0953         estimate D2E/DX2                !
 ! R27   R(23,25)                1.0954         estimate D2E/DX2                !
 ! R28   R(23,36)                1.3855         estimate D2E/DX2                !
 ! R29   R(24,26)                1.0954         estimate D2E/DX2                !
 ! R30   R(24,35)                1.3855         estimate D2E/DX2                !
 ! R31   R(27,28)                1.3622         estimate D2E/DX2                !
 ! R32   R(27,31)                1.0942         estimate D2E/DX2                !
 ! R33   R(27,36)                1.4331         estimate D2E/DX2                !
 ! R34   R(28,29)                1.4308         estimate D2E/DX2                !
 ! R35   R(28,32)                1.0929         estimate D2E/DX2                !
 ! R36   R(29,30)                1.3622         estimate D2E/DX2                !
 ! R37   R(29,33)                1.0929         estimate D2E/DX2                !
 ! R38   R(30,34)                1.0942         estimate D2E/DX2                !
 ! R39   R(30,35)                1.4331         estimate D2E/DX2                !
 ! R40   R(35,36)                1.4487         estimate D2E/DX2                !
 ! A1    A(2,1,6)              121.037          estimate D2E/DX2                !
 ! A2    A(2,1,7)              118.1554         estimate D2E/DX2                !
 ! A3    A(6,1,7)              120.8077         estimate D2E/DX2                !
 ! A4    A(1,2,3)              118.4491         estimate D2E/DX2                !
 ! A5    A(1,2,11)             122.1448         estimate D2E/DX2                !
 ! A6    A(3,2,11)             119.4061         estimate D2E/DX2                !
 ! A7    A(2,3,4)              118.4491         estimate D2E/DX2                !
 ! A8    A(2,3,14)             119.4061         estimate D2E/DX2                !
 ! A9    A(4,3,14)             122.1448         estimate D2E/DX2                !
 ! A10   A(3,4,5)              121.0369         estimate D2E/DX2                !
 ! A11   A(3,4,8)              118.1554         estimate D2E/DX2                !
 ! A12   A(5,4,8)              120.8077         estimate D2E/DX2                !
 ! A13   A(4,5,6)              120.514          estimate D2E/DX2                !
 ! A14   A(4,5,9)              120.1278         estimate D2E/DX2                !
 ! A15   A(6,5,9)              119.3582         estimate D2E/DX2                !
 ! A16   A(1,6,5)              120.5139         estimate D2E/DX2                !
 ! A17   A(1,6,10)             120.1279         estimate D2E/DX2                !
 ! A18   A(5,6,10)             119.3582         estimate D2E/DX2                !
 ! A19   A(2,11,12)            121.8424         estimate D2E/DX2                !
 ! A20   A(2,11,15)            119.3692         estimate D2E/DX2                !
 ! A21   A(12,11,15)           118.7884         estimate D2E/DX2                !
 ! A22   A(11,12,13)           118.7515         estimate D2E/DX2                !
 ! A23   A(11,12,17)           122.1778         estimate D2E/DX2                !
 ! A24   A(13,12,17)           119.0706         estimate D2E/DX2                !
 ! A25   A(12,13,14)           118.7515         estimate D2E/DX2                !
 ! A26   A(12,13,20)           119.0706         estimate D2E/DX2                !
 ! A27   A(14,13,20)           122.1779         estimate D2E/DX2                !
 ! A28   A(3,14,13)            121.8424         estimate D2E/DX2                !
 ! A29   A(3,14,16)            119.3693         estimate D2E/DX2                !
 ! A30   A(13,14,16)           118.7883         estimate D2E/DX2                !
 ! A31   A(12,17,18)           121.8588         estimate D2E/DX2                !
 ! A32   A(12,17,21)           119.0706         estimate D2E/DX2                !
 ! A33   A(18,17,21)           119.0706         estimate D2E/DX2                !
 ! A34   A(17,18,19)           119.0706         estimate D2E/DX2                !
 ! A35   A(17,18,23)           122.1778         estimate D2E/DX2                !
 ! A36   A(19,18,23)           118.7515         estimate D2E/DX2                !
 ! A37   A(18,19,20)           119.0706         estimate D2E/DX2                !
 ! A38   A(18,19,24)           118.7515         estimate D2E/DX2                !
 ! A39   A(20,19,24)           122.1779         estimate D2E/DX2                !
 ! A40   A(13,20,19)           121.8588         estimate D2E/DX2                !
 ! A41   A(13,20,22)           119.0706         estimate D2E/DX2                !
 ! A42   A(19,20,22)           119.0706         estimate D2E/DX2                !
 ! A43   A(18,23,25)           118.7884         estimate D2E/DX2                !
 ! A44   A(18,23,36)           121.8424         estimate D2E/DX2                !
 ! A45   A(25,23,36)           119.3692         estimate D2E/DX2                !
 ! A46   A(19,24,26)           118.7883         estimate D2E/DX2                !
 ! A47   A(19,24,35)           121.8424         estimate D2E/DX2                !
 ! A48   A(26,24,35)           119.3693         estimate D2E/DX2                !
 ! A49   A(28,27,31)           120.8077         estimate D2E/DX2                !
 ! A50   A(28,27,36)           121.037          estimate D2E/DX2                !
 ! A51   A(31,27,36)           118.1554         estimate D2E/DX2                !
 ! A52   A(27,28,29)           120.5139         estimate D2E/DX2                !
 ! A53   A(27,28,32)           120.1279         estimate D2E/DX2                !
 ! A54   A(29,28,32)           119.3582         estimate D2E/DX2                !
 ! A55   A(28,29,30)           120.514          estimate D2E/DX2                !
 ! A56   A(28,29,33)           119.3582         estimate D2E/DX2                !
 ! A57   A(30,29,33)           120.1278         estimate D2E/DX2                !
 ! A58   A(29,30,34)           120.8077         estimate D2E/DX2                !
 ! A59   A(29,30,35)           121.0369         estimate D2E/DX2                !
 ! A60   A(34,30,35)           118.1554         estimate D2E/DX2                !
 ! A61   A(24,35,30)           122.1448         estimate D2E/DX2                !
 ! A62   A(24,35,36)           119.4061         estimate D2E/DX2                !
 ! A63   A(30,35,36)           118.4491         estimate D2E/DX2                !
 ! A64   A(23,36,27)           122.1448         estimate D2E/DX2                !
 ! A65   A(23,36,35)           119.4061         estimate D2E/DX2                !
 ! A66   A(27,36,35)           118.4491         estimate D2E/DX2                !
 ! D1    D(6,1,2,3)              0.0            estimate D2E/DX2                !
 ! D2    D(6,1,2,11)           180.0            estimate D2E/DX2                !
 ! D3    D(7,1,2,3)            180.0            estimate D2E/DX2                !
 ! D4    D(7,1,2,11)             0.0            estimate D2E/DX2                !
 ! D5    D(2,1,6,5)              0.0            estimate D2E/DX2                !
 ! D6    D(2,1,6,10)           180.0            estimate D2E/DX2                !
 ! D7    D(7,1,6,5)            180.0            estimate D2E/DX2                !
 ! D8    D(7,1,6,10)             0.0            estimate D2E/DX2                !
 ! D9    D(1,2,3,4)              0.0            estimate D2E/DX2                !
 ! D10   D(1,2,3,14)           180.0            estimate D2E/DX2                !
 ! D11   D(11,2,3,4)           180.0            estimate D2E/DX2                !
 ! D12   D(11,2,3,14)            0.0            estimate D2E/DX2                !
 ! D13   D(1,2,11,12)          180.0            estimate D2E/DX2                !
 ! D14   D(1,2,11,15)            0.0            estimate D2E/DX2                !
 ! D15   D(3,2,11,12)            0.0            estimate D2E/DX2                !
 ! D16   D(3,2,11,15)          180.0            estimate D2E/DX2                !
 ! D17   D(2,3,4,5)              0.0            estimate D2E/DX2                !
 ! D18   D(2,3,4,8)            180.0            estimate D2E/DX2                !
 ! D19   D(14,3,4,5)           180.0            estimate D2E/DX2                !
 ! D20   D(14,3,4,8)             0.0            estimate D2E/DX2                !
 ! D21   D(2,3,14,13)            0.0            estimate D2E/DX2                !
 ! D22   D(2,3,14,16)          180.0            estimate D2E/DX2                !
 ! D23   D(4,3,14,13)          180.0            estimate D2E/DX2                !
 ! D24   D(4,3,14,16)            0.0            estimate D2E/DX2                !
 ! D25   D(3,4,5,6)              0.0            estimate D2E/DX2                !
 ! D26   D(3,4,5,9)            180.0            estimate D2E/DX2                !
 ! D27   D(8,4,5,6)            180.0            estimate D2E/DX2                !
 ! D28   D(8,4,5,9)              0.0            estimate D2E/DX2                !
 ! D29   D(4,5,6,1)              0.0            estimate D2E/DX2                !
 ! D30   D(4,5,6,10)           180.0            estimate D2E/DX2                !
 ! D31   D(9,5,6,1)            180.0            estimate D2E/DX2                !
 ! D32   D(9,5,6,10)             0.0            estimate D2E/DX2                !
 ! D33   D(2,11,12,13)           0.0            estimate D2E/DX2                !
 ! D34   D(2,11,12,17)         180.0            estimate D2E/DX2                !
 ! D35   D(15,11,12,13)        180.0            estimate D2E/DX2                !
 ! D36   D(15,11,12,17)          0.0            estimate D2E/DX2                !
 ! D37   D(11,12,13,14)          0.0            estimate D2E/DX2                !
 ! D38   D(11,12,13,20)        180.0            estimate D2E/DX2                !
 ! D39   D(17,12,13,14)        180.0            estimate D2E/DX2                !
 ! D40   D(17,12,13,20)          0.0            estimate D2E/DX2                !
 ! D41   D(11,12,17,18)        180.0            estimate D2E/DX2                !
 ! D42   D(11,12,17,21)          0.0            estimate D2E/DX2                !
 ! D43   D(13,12,17,18)          0.0            estimate D2E/DX2                !
 ! D44   D(13,12,17,21)        180.0            estimate D2E/DX2                !
 ! D45   D(12,13,14,3)           0.0            estimate D2E/DX2                !
 ! D46   D(12,13,14,16)        180.0            estimate D2E/DX2                !
 ! D47   D(20,13,14,3)         180.0            estimate D2E/DX2                !
 ! D48   D(20,13,14,16)          0.0            estimate D2E/DX2                !
 ! D49   D(12,13,20,19)          0.0            estimate D2E/DX2                !
 ! D50   D(12,13,20,22)        180.0            estimate D2E/DX2                !
 ! D51   D(14,13,20,19)        180.0            estimate D2E/DX2                !
 ! D52   D(14,13,20,22)          0.0            estimate D2E/DX2                !
 ! D53   D(12,17,18,19)          0.0            estimate D2E/DX2                !
 ! D54   D(12,17,18,23)        180.0            estimate D2E/DX2                !
 ! D55   D(21,17,18,19)        180.0            estimate D2E/DX2                !
 ! D56   D(21,17,18,23)          0.0            estimate D2E/DX2                !
 ! D57   D(17,18,19,20)          0.0            estimate D2E/DX2                !
 ! D58   D(17,18,19,24)        180.0            estimate D2E/DX2                !
 ! D59   D(23,18,19,20)        180.0            estimate D2E/DX2                !
 ! D60   D(23,18,19,24)          0.0            estimate D2E/DX2                !
 ! D61   D(17,18,23,25)          0.0            estimate D2E/DX2                !
 ! D62   D(17,18,23,36)        180.0            estimate D2E/DX2                !
 ! D63   D(19,18,23,25)        180.0            estimate D2E/DX2                !
 ! D64   D(19,18,23,36)          0.0            estimate D2E/DX2                !
 ! D65   D(18,19,20,13)          0.0            estimate D2E/DX2                !
 ! D66   D(18,19,20,22)        180.0            estimate D2E/DX2                !
 ! D67   D(24,19,20,13)        180.0            estimate D2E/DX2                !
 ! D68   D(24,19,20,22)          0.0            estimate D2E/DX2                !
 ! D69   D(18,19,24,26)        180.0            estimate D2E/DX2                !
 ! D70   D(18,19,24,35)          0.0            estimate D2E/DX2                !
 ! D71   D(20,19,24,26)          0.0            estimate D2E/DX2                !
 ! D72   D(20,19,24,35)        180.0            estimate D2E/DX2                !
 ! D73   D(18,23,36,27)        180.0            estimate D2E/DX2                !
 ! D74   D(18,23,36,35)          0.0            estimate D2E/DX2                !
 ! D75   D(25,23,36,27)          0.0            estimate D2E/DX2                !
 ! D76   D(25,23,36,35)        180.0            estimate D2E/DX2                !
 ! D77   D(19,24,35,30)        180.0            estimate D2E/DX2                !
 ! D78   D(19,24,35,36)          0.0            estimate D2E/DX2                !
 ! D79   D(26,24,35,30)          0.0            estimate D2E/DX2                !
 ! D80   D(26,24,35,36)        180.0            estimate D2E/DX2                !
 ! D81   D(31,27,28,29)        180.0            estimate D2E/DX2                !
 ! D82   D(31,27,28,32)          0.0            estimate D2E/DX2                !
 ! D83   D(36,27,28,29)          0.0            estimate D2E/DX2                !
 ! D84   D(36,27,28,32)        180.0            estimate D2E/DX2                !
 ! D85   D(28,27,36,23)        180.0            estimate D2E/DX2                !
 ! D86   D(28,27,36,35)          0.0            estimate D2E/DX2                !
 ! D87   D(31,27,36,23)          0.0            estimate D2E/DX2                !
 ! D88   D(31,27,36,35)        180.0            estimate D2E/DX2                !
 ! D89   D(27,28,29,30)          0.0            estimate D2E/DX2                !
 ! D90   D(27,28,29,33)        180.0            estimate D2E/DX2                !
 ! D91   D(32,28,29,30)        180.0            estimate D2E/DX2                !
 ! D92   D(32,28,29,33)          0.0            estimate D2E/DX2                !
 ! D93   D(28,29,30,34)        180.0            estimate D2E/DX2                !
 ! D94   D(28,29,30,35)          0.0            estimate D2E/DX2                !
 ! D95   D(33,29,30,34)          0.0            estimate D2E/DX2                !
 ! D96   D(33,29,30,35)        180.0            estimate D2E/DX2                !
 ! D97   D(29,30,35,24)        180.0            estimate D2E/DX2                !
 ! D98   D(29,30,35,36)          0.0            estimate D2E/DX2                !
 ! D99   D(34,30,35,24)          0.0            estimate D2E/DX2                !
 ! D100  D(34,30,35,36)        180.0            estimate D2E/DX2                !
 ! D101  D(24,35,36,23)          0.0            estimate D2E/DX2                !
 ! D102  D(24,35,36,27)        180.0            estimate D2E/DX2                !
 ! D103  D(30,35,36,23)        180.0            estimate D2E/DX2                !
 ! D104  D(30,35,36,27)          0.0            estimate D2E/DX2                !
 --------------------------------------------------------------------------------
 Trust Radius=3.00D-01 FncErr=1.00D-07 GrdErr=1.00D-06
 Number of steps in this run=    216 maximum allowed number of steps=    216.
 GradGradGradGradGradGradGradGradGradGradGradGradGradGradGradGradGradGrad

                          Input orientation:                          
 ---------------------------------------------------------------------
 Center     Atomic      Atomic             Coordinates (Angstroms)
 Number     Number       Type             X           Y           Z
 ---------------------------------------------------------------------
      1          6           0       -4.928324    1.407063    0.000000
      2          6           0       -3.668294    0.724371    0.000000
      3          6           0       -3.668294   -0.724371    0.000000
      4          6           0       -4.928325   -1.407063    0.000000
      5          6           0       -6.101897   -0.715390    0.000000
      6          6           0       -6.101897    0.715391    0.000000
      7          1           0       -4.922715    2.501201    0.000000
      8          1           0       -4.922716   -2.501200    0.000000
      9          1           0       -7.054437   -1.251203    0.000000
     10          1           0       -7.054436    1.251204    0.000000
     11          6           0       -2.461311    1.404639    0.000000
     12          6           0       -1.223020    0.725246    0.000000
     13          6           0       -1.223020   -0.725247    0.000000
     14          6           0       -2.461312   -1.404639    0.000000
     15          1           0       -2.462016    2.500033    0.000000
     16          1           0       -2.462016   -2.500033    0.000000
     17          6           0        0.000000    1.405149    0.000000
     18          6           0        1.223020    0.725246    0.000000
     19          6           0        1.223020   -0.725247    0.000000
     20          6           0        0.000000   -1.405150    0.000000
     21          1           0        0.000000    2.500412    0.000000
     22          1           0        0.000000   -2.500413    0.000000
     23          6           0        2.461311    1.404639    0.000000
     24          6           0        2.461312   -1.404639    0.000000
     25          1           0        2.462016    2.500033    0.000000
     26          1           0        2.462016   -2.500033    0.000000
     27          6           0        4.928324    1.407063    0.000000
     28          6           0        6.101897    0.715391    0.000000
     29          6           0        6.101897   -0.715390    0.000000
     30          6           0        4.928325   -1.407063    0.000000
     31          1           0        4.922715    2.501201    0.000000
     32          1           0        7.054436    1.251204    0.000000
     33          1           0        7.054437   -1.251203    0.000000
     34          1           0        4.922716   -2.501200    0.000000
     35          6           0        3.668294   -0.724371    0.000000
     36          6           0        3.668294    0.724371    0.000000
 ---------------------------------------------------------------------
                    Distance matrix (angstroms):
                    1          2          3          4          5
     1  C    0.000000
     2  C    1.433089   0.000000
     3  C    2.476022   1.448742   0.000000
     4  C    2.814126   2.476023   1.433090   0.000000
     5  C    2.425300   2.827602   2.433620   1.362234   0.000000
     6  C    1.362235   2.433620   2.827603   2.425300   1.430781
     7  H    1.094152   2.175017   3.460908   3.908268   3.425920
     8  H    3.908267   3.460908   2.175016   1.094151   2.139997
     9  H    3.403929   3.920313   3.426881   2.131817   1.092899
    10  H    2.131817   3.426881   3.920313   3.403929   2.185137
    11  C    2.467014   1.385486   2.447344   3.740565   4.212884
    12  C    3.767513   2.445274   2.842667   4.275047   5.087128
    13  C    4.275047   2.842667   2.445274   3.767514   4.878887
    14  C    3.740564   2.447343   1.385486   2.467014   3.705256
    15  H    2.697639   2.146644   3.442657   4.620398   4.856715
    16  H    4.620398   3.442657   2.146644   2.697640   4.053848
    17  C    4.928324   3.730930   4.241608   5.674233   6.459863
    18  C    6.189015   4.891314   5.101602   6.510437   7.465242
    19  C    6.510436   5.101602   4.891314   6.189016   7.324924
    20  C    5.674233   4.241608   3.730930   4.928325   6.140759
    21  H    5.048147   4.075623   4.884220   6.289416   6.897429
    22  H    6.289415   4.884221   4.075623   5.048148   6.357630
    23  C    7.389635   6.167238   6.488817   7.906478   8.821738
    24  C    7.906478   6.488818   6.167239   7.389637   8.590903
    25  H    7.470723   6.382294   6.926578   8.359578   9.147653
    26  H    8.359577   6.926578   6.382294   7.470724   8.747889
    27  C    9.856648   8.623683   8.856910  10.250504  11.232568
    28  C   11.051886   9.770195   9.875705  11.232569  12.287381
    29  C   11.232568   9.875705   9.770195  11.051887  12.203794
    30  C   10.250504   8.856911   8.623684   9.856650  11.051887
    31  H    9.911615   8.772831   9.176587  10.597996  11.484273
    32  H   11.983774  10.735664  10.903203  12.274076  13.302503
    33  H   12.274076  10.903204  10.735665  11.983776  13.167240
    34  H   10.597996   9.176588   8.772832   9.911617  11.168313
    35  C    8.856910   7.478260   7.336588   8.623684   9.770195
    36  C    8.623683   7.336588   7.478260   8.856911   9.875705
                    6          7          8          9         10
     6  C    0.000000
     7  H    2.139997   0.000000
     8  H    3.425920   5.002401   0.000000
     9  H    2.185137   4.315643   2.471179   0.000000
    10  H    1.092898   2.471179   4.315642   2.502407   0.000000
    11  C    3.705257   2.694616   4.616719   5.305686   4.595687
    12  C    4.878887   4.103871   4.908941   6.157254   5.855087
    13  C    5.087129   4.908942   4.103871   5.855088   6.157254
    14  C    4.212883   4.616719   2.694616   4.595687   5.305685
    15  H    4.053848   2.460699   5.573812   5.929764   4.759191
    16  H    4.856715   5.573812   2.460700   4.759192   5.929764
    17  C    6.140758   5.043258   6.284321   7.537990   7.056116
    18  C    7.324924   6.397193   6.941183   8.510150   8.294149
    19  C    7.465243   6.941183   6.397193   8.294150   8.510149
    20  C    6.459864   6.284322   5.043259   7.056117   7.537989
    21  H    6.357629   4.922715   7.017781   7.989975   7.164188
    22  H    6.897430   7.017782   4.922716   7.164189   7.989975
    23  C    8.590902   7.465004   8.353408   9.879421   9.516984
    24  C    8.821739   8.353409   7.465006   9.516986   9.879421
    25  H    8.747888   7.384731   8.918890  10.229108   9.598043
    26  H    9.147653   8.918890   7.384732   9.598044  10.229107
    27  C   11.051886   9.911615  10.597996  12.274076  11.983774
    28  C   12.203794  11.168312  11.484274  13.302504  13.167239
    29  C   12.287381  11.484273  11.168313  13.167240  13.302503
    30  C   11.232569  10.597996   9.911617  11.983776  12.274076
    31  H   11.168312   9.845430  11.043393  12.551203  12.042202
    32  H   13.167239  12.042202  12.551203  14.329073  14.108872
    33  H   13.302504  12.551203  12.042204  14.108874  14.329073
    34  H   11.484274  11.043393   9.845432  12.042204  12.551203
    35  C    9.875705   9.176587   8.772832  10.735665  10.903203
    36  C    9.770195   8.772831   9.176588  10.903204  10.735664
                   11         12         13         14         15
    11  C    0.000000
    12  C    1.412423   0.000000
    13  C    2.463692   1.450493   0.000000
    14  C    2.809278   2.463692   1.412424   0.000000
    15  H    1.095394   2.164481   3.455075   3.904672   0.000000
    16  H    3.904672   3.455074   2.164481   1.095394   5.000066
    17  C    2.461311   1.399302   2.456494   3.735367   2.694493
    18  C    3.746448   2.446040   2.843772   4.255668   4.090154
    19  C    4.255668   2.843772   2.446040   3.746448   4.897134
    20  C    3.735367   2.456494   1.399302   2.461312   4.616490
    21  H    2.694211   2.155688   3.449732   4.616003   2.462016
    22  H    4.616003   3.449732   2.155688   2.694212   5.573687
    23  C    4.922622   3.746448   4.255668   5.667827   5.043713
    24  C    5.667827   4.255668   3.746448   4.922624   6.283759
    25  H    5.043713   4.090154   4.897134   6.283759   4.924032
    26  H    6.283758   4.897133   4.090154   5.043714   7.017603
    27  C    7.389635   6.189015   6.510436   7.906478   7.470723
    28  C    8.590902   7.324924   7.465243   8.821739   8.747888
    29  C    8.821738   7.465242   7.324924   8.590903   9.147653
    30  C    7.906478   6.510437   6.189016   7.389637   8.359578
    31  H    7.465004   6.397193   6.941183   8.353409   7.384731
    32  H    9.516984   8.294149   8.510149   9.879421   9.598043
    33  H    9.879421   8.510150   8.294150   9.516986  10.229108
    34  H    8.353408   6.941183   6.397193   7.465006   8.918890
    35  C    6.488817   5.101602   4.891314   6.167239   6.926578
    36  C    6.167238   4.891314   5.101602   6.488818   6.382294
                   16         17         18         19         20
    16  H    0.000000
    17  C    4.616489   0.000000
    18  C    4.897133   1.399302   0.000000
    19  C    4.090154   2.456494   1.450493   0.000000
    20  C    2.694493   2.810299   2.456494   1.399302   0.000000
    21  H    5.573686   1.095263   2.155688   3.449732   3.905562
    22  H    2.462016   3.905562   3.449732   2.155688   1.095263
    23  C    6.283758   2.461311   1.412423   2.463692   3.735367
    24  C    5.043714   3.735367   2.463692   1.412424   2.461312
    25  H    7.017603   2.694493   2.164481   3.455075   4.616490
    26  H    4.924032   4.616489   3.455074   2.164481   2.694493
    27  C    8.359577   4.928324   3.767513   4.275047   5.674233
    28  C    9.147653   6.140758   4.878887   5.087129   6.459864
    29  C    8.747889   6.459863   5.087128   4.878887   6.140759
    30  C    7.470724   5.674233   4.275047   3.767514   4.928325
    31  H    8.918890   5.043258   4.103871   4.908942   6.284322
    32  H   10.229107   7.056116   5.855087   6.157254   7.537989
    33  H    9.598044   7.537990   6.157254   5.855088   7.056117
    34  H    7.384732   6.284321   4.908941   4.103871   5.043259
    35  C    6.382294   4.241608   2.842667   2.445274   3.730930
    36  C    6.926578   3.730930   2.445274   2.842667   4.241608
                   21         22         23         24         25
    21  H    0.000000
    22  H    5.000825   0.000000
    23  C    2.694211   4.616003   0.000000
    24  C    4.616003   2.694212   2.809278   0.000000
    25  H    2.462016   5.573687   1.095394   3.904672   0.000000
    26  H    5.573686   2.462016   3.904672   1.095394   5.000066
    27  C    5.048147   6.289415   2.467014   3.740564   2.697639
    28  C    6.357629   6.897430   3.705257   4.212883   4.053848
    29  C    6.897429   6.357630   4.212884   3.705256   4.856715
    30  C    6.289416   5.048148   3.740565   2.467014   4.620398
    31  H    4.922715   7.017782   2.694616   4.616719   2.460699
    32  H    7.164188   7.989975   4.595687   5.305685   4.759191
    33  H    7.989975   7.164189   5.305686   4.595687   5.929764
    34  H    7.017781   4.922716   4.616719   2.694616   5.573812
    35  C    4.884220   4.075623   2.447344   1.385486   3.442657
    36  C    4.075623   4.884221   1.385486   2.447343   2.146644
                   26         27         28         29         30
    26  H    0.000000
    27  C    4.620398   0.000000
    28  C    4.856715   1.362235   0.000000
    29  C    4.053848   2.425300   1.430781   0.000000
    30  C    2.697640   2.814126   2.425300   1.362234   0.000000
    31  H    5.573812   1.094152   2.139997   3.425920   3.908268
    32  H    5.929764   2.131817   1.092898   2.185137   3.403929
    33  H    4.759192   3.403929   2.185137   1.092899   2.131817
    34  H    2.460700   3.908267   3.425920   2.139997   1.094151
    35  C    2.146644   2.476022   2.827603   2.433620   1.433090
    36  C    3.442657   1.433089   2.433620   2.827602   2.476023
                   31         32         33         34         35
    31  H    0.000000
    32  H    2.471179   0.000000
    33  H    4.315643   2.502407   0.000000
    34  H    5.002401   4.315642   2.471179   0.000000
    35  C    3.460908   3.920313   3.426881   2.175016   0.000000
    36  C    2.175017   3.426881   3.920313   3.460908   1.448742
                   36
    36  C    0.000000
 Stoichiometry    C22H14
 Framework group  D2H[C2"(HC.CH),SG(C20H12)]
 Deg. of freedom    18
 Full point group                 D2H     NOp   8
 Largest Abelian subgroup         D2H     NOp   8
 Largest concise Abelian subgroup D2      NOp   4
                         Standard orientation:                         
 ---------------------------------------------------------------------
 Center     Atomic      Atomic             Coordinates (Angstroms)
 Number     Number       Type             X           Y           Z
 ---------------------------------------------------------------------
      1          6           0        0.000000    4.928324    1.407063
      2          6           0        0.000000    3.668294    0.724371
      3          6           0        0.000000    3.668294   -0.724371
      4          6           0        0.000000    4.928324   -1.407063
      5          6           0        0.000000    6.101897   -0.715390
      6          6           0       -0.000000    6.101897    0.715390
      7          1           0        0.000000    4.922715    2.501201
      8          1           0        0.000000    4.922715   -2.501201
      9          1           0        0.000000    7.054437   -1.251203
     10          1           0       -0.000000    7.054437    1.251203
     11          6           0        0.000000    2.461311    1.404639
     12          6           0        0.000000    1.223020    0.725246
     13          6           0        0.000000    1.223020   -0.725246
     14          6           0        0.000000    2.461311   -1.404639
     15          1           0        0.000000    2.462016    2.500033
     16          1           0        0.000000    2.462016   -2.500033
     17          6           0        0.000000    0.000000    1.405149
     18          6           0       -0.000000   -1.223020    0.725246
     19          6           0       -0.000000   -1.223020   -0.725246
     20          6           0        0.000000   -0.000000   -1.405149
     21          1           0        0.000000    0.000000    2.500412
     22          1           0        0.000000   -0.000000   -2.500412
     23          6           0       -0.000000   -2.461311    1.404639
     24          6           0       -0.000000   -2.461311   -1.404639
     25          1           0       -0.000000   -2.462016    2.500033
     26          1           0       -0.000000   -2.462016   -2.500033
     27          6           0       -0.000000   -4.928324    1.407063
     28          6           0       -0.000000   -6.101897    0.715390
     29          6           0       -0.000000   -6.101897   -0.715390
     30          6           0       -0.000000   -4.928324   -1.407063
     31          1           0       -0.000000   -4.922715    2.501201
     32          1           0       -0.000000   -7.054437    1.251203
     33          1           0       -0.000000   -7.054437   -1.251203
     34          1           0       -0.000000   -4.922715   -2.501201
     35          6           0       -0.000000   -3.668294   -0.724371
     36          6           0       -0.000000   -3.668294    0.724371
 ---------------------------------------------------------------------
 Rotational constants (GHZ):      1.3248861      0.1179616      0.1083175
 Standard basis: Aug-CC-pVDZ (5D, 7F)
 There are   129 symmetry adapted cartesian basis functions of AG  symmetry.
 There are    43 symmetry adapted cartesian basis functions of B1G symmetry.
 There are    48 symmetry adapted cartesian basis functions of B2G symmetry.
 There are   118 symmetry adapted cartesian basis functions of B3G symmetry.
 There are    43 symmetry adapted cartesian basis functions of AU  symmetry.
 There are   129 symmetry adapted cartesian basis functions of B1U symmetry.
 There are   118 symmetry adapted cartesian basis functions of B2U symmetry.
 There are    48 symmetry adapted cartesian basis functions of B3U symmetry.
 There are   117 symmetry adapted basis functions of AG  symmetry.
 There are    43 symmetry adapted basis functions of B1G symmetry.
 There are    48 symmetry adapted basis functions of B2G symmetry.
 There are   108 symmetry adapted basis functions of B3G symmetry.
 There are    43 symmetry adapted basis functions of AU  symmetry.
 There are   117 symmetry adapted basis functions of B1U symmetry.
 There are   108 symmetry adapted basis functions of B2U symmetry.
 There are    48 symmetry adapted basis functions of B3U symmetry.
   632 basis functions,  1100 primitive gaussians,   676 cartesian basis functions
    73 alpha electrons       73 beta electrons
       nuclear repulsion energy      1495.0790700202 Hartrees.
 NAtoms=   36 NActive=   36 NUniq=   10 SFac= 4.00D+00 NAtFMM=   60 NAOKFM=F Big=F
 Integral buffers will be    131072 words long.
 Raffenetti 2 integral format.
 Two-electron integral symmetry is turned on.
 One-electron integrals computed using PRISM.
 NBasis=   632 RedAO= T EigKep=  1.17D-06  NBF=   117    43    48   108    43   117   108    48
 NBsUse=   619 1.00D-06 EigRej=  9.55D-07 NBFU=   117    43    48   101    43   112   107    48
 ExpMin= 2.97D-02 ExpMax= 6.67D+03 ExpMxC= 2.28D+02 IAcc=3 IRadAn=         5 AccDes= 0.00D+00
 Harris functional with IExCor= 1009 and IRadAn=       5 diagonalized for initial guess.
 HarFok:  IExCor= 1009 AccDes= 0.00D+00 IRadAn=         5 IDoV= 1 UseB2=F ITyADJ=14
 ICtDFT=  3500011 ScaDFX=  1.000000  1.000000  1.000000  1.000000
 FoFCou: FMM=F IPFlag=           0 FMFlag=      100000 FMFlg1=           0
         NFxFlg=           0 DoJE=T BraDBF=F KetDBF=T FulRan=T
         wScrn=  0.000000 ICntrl=     500 IOpCl=  0 I1Cent=   200000004 NGrid=           0
         NMat0=    1 NMatS0=      1 NMatT0=    0 NMatD0=    1 NMtDS0=    0 NMtDT0=    0
 Petite list used in FoFCou.
 Initial guess orbital symmetries:
       Occupied  (AG) (B2U) (B1U) (B3G) (B2U) (AG) (B1U) (B3G)
                 (B1U) (B3G) (AG) (B2U) (B1U) (AG) (B2U) (AG) (B3G)
                 (B1U) (B2U) (AG) (B1U) (B3G) (AG) (B2U) (AG) (B2U)
                 (B1U) (AG) (B3G) (B1U) (B2U) (B3G) (B1U) (AG)
                 (B3G) (B2U) (AG) (B2U) (AG) (B1U) (AG) (B2U) (B3G)
                 (B2U) (AG) (B1U) (B2U) (AG) (B1U) (B3G) (B2U)
                 (B1U) (B3G) (AG) (B3G) (B1U) (B3U) (B2U) (B1G)
                 (B1U) (B3G) (B3U) (AG) (B2U) (AG) (B1G) (B2G)
                 (AU) (B3U) (B2G) (B1G) (AU) (B2G)
       Virtual   (B3U) (B1G) (AU) (B3U) (B2G) (B1G) (B3U) (AU)
                 (AG) (B2U) (B1U) (AG) (B3G) (B2G) (B2U) (AG) (B1U)
                 (B2U) (AG) (B3G) (B2G) (B2U) (AU) (B3U) (AG) (B1U)
                 (B1G) (AG) (B3G) (B1U) (B3U) (B2U) (AG) (B3G)
                 (AU) (B1U) (B2U) (B3G) (B1G) (B2G) (AG) (B1U)
                 (B3G) (B2U) (AG) (B1U) (B2G) (B2U) (AG) (B3U)
                 (B3G) (B1U) (B3U) (AG) (B1U) (AG) (AU) (B2U) (B1U)
                 (B1G) (B3G) (B1U) (B3G) (B2U) (B1G) (B3U) (B2G)
                 (B3G) (B2U) (AG) (B2U) (B1U) (B3G) (AG) (B1U)
                 (B2U) (AG) (B2U) (AG) (AU) (B2G) (AG) (B2U) (B1G)
                 (B1U) (B3G) (B3U) (AU) (B2U) (AG) (B1U) (AG) (B2U)
                 (AG) (B3G) (B2G) (AG) (B2U) (B1U) (B1U) (B1U)
                 (B3G) (B2U) (B1G) (B3U) (B3G) (AG) (B3G) (B2G)
                 (AG) (B1U) (B2U) (B1U) (B2U) (B3U) (B3G) (AG)
                 (AU) (AG) (B2U) (B1G) (B1U) (B2G) (B3G) (B3U)
                 (AU) (AG) (B1U) (B2U) (B3G) (AG) (B1U) (B2G) (B2U)
                 (AG) (B3G) (B2U) (B1U) (B1G) (B3G) (AG) (AU) (B3U)
                 (B2U) (B1U) (B3G) (B1U) (B1G) (B2G) (AG) (B1U)
                 (B2U) (B3G) (B3U) (B3U) (B2U) (B3G) (AG) (B1G)
                 (AG) (B1U) (AU) (B1G) (B3U) (B2G) (B1U) (B3G)
                 (AG) (B1G) (B2U) (B3G) (B1U) (B3U) (B3G) (AG)
                 (B1U) (B2U) (B2U) (B2G) (AU) (AG) (B1U) (B3G)
                 (B3U) (B2U) (B1U) (B3G) (AG) (B1U) (AG) (AU) (B1G)
                 (B2U) (B1U) (B2U) (B3G) (AG) (B1U) (AG) (AG) (B3U)
                 (B2U) (B2G) (B1U) (B3G) (B1G) (B3G) (B2U) (B3U)
                 (B1U) (AU) (B2U) (AG) (B2G) (B3G) (B3G) (B2U)
                 (AG) (B3G) (B1U) (AG) (B3G) (B1U) (B2U) (AG) (B1U)
                 (B2U) (AG) (B1U) (AG) (B2G) (AU) (B1U) (B1G) (B3U)
                 (B2U) (B2G) (B3G) (AU) (AG) (B1G) (AU) (B2G) (AG)
                 (B3U) (B1U) (B1G) (B3G) (B2G) (B2U) (B3U) (B1G)
                 (B2U) (B3G) (B3U) (B2U) (B2G) (B1G) (AU) (B1U)
                 (B1U) (B2G) (B2U) (AG) (AG) (AU) (B3U) (B1G) (B3G)
                 (B1U) (AU) (B3G) (AG) (B3U) (AG) (B1U) (B2U) (B3G)
                 (B1G) (B2G) (AU) (B2G) (B1U) (B2U) (B3U) (B3G)
                 (B1U) (AU) (B1G) (AG) (B3U) (B1G) (B2U) (B3G)
                 (B2G) (AG) (B1U) (B2U) (B3G) (B3U) (B2G) (AG)
                 (B3U) (B2U) (B1U) (B3G) (AU) (AG) (B1G) (B1U)
                 (AU) (B2U) (AU) (B2G) (B3G) (B1U) (B3G) (B1G)
                 (AG) (B2U) (B3U) (B1U) (B2G) (AG) (B3G) (AU) (B1U)
                 (B3U) (B1G) (B2U) (AU) (B3G) (AG) (B2G) (B2U)
                 (B1U) (B2U) (AG) (B1U) (B2G) (B3U) (B1G) (B3G)
                 (B3G) (B2U) (AG) (B1U) (AG) (B3U) (B2U) (B1U)
                 (B2U) (AG) (B1G) (B3G) (B2G) (B2U) (AG) (AU) (B1U)
                 (B3G) (B3U) (AG) (B1G) (AG) (B2U) (B2G) (AG) (AU)
                 (B2G) (B3G) (B3U) (B2U) (B1G) (AG) (B1U) (B2G)
                 (B2U) (AG) (B3U) (B2U) (AU) (B2U) (AU) (B3G) (B2U)
                 (B1U) (AG) (B1G) (B2U) (B2G) (AG) (AU) (B3G) (B1U)
                 (AG) (B1U) (B2G) (B3G) (B3U) (B1U) (AU) (AG) (B1G)
                 (B3G) (B2U) (B1U) (AG) (B2U) (B3U) (B1U) (AG)
                 (B3G) (B3G) (B2U) (B3U) (B3G) (B1U) (AG) (B1G)
                 (B1U) (B2G) (AU) (B2U) (B1G) (B1G) (B3G) (B3U)
                 (AG) (B3U) (B2U) (B1U) (B3G) (AU) (B2G) (B2U)
                 (B1U) (B2G) (AG) (B3G) (B2U) (B3G) (B1U) (AG)
                 (AU) (B3G) (B1G) (B1U) (B3U) (B2U) (AG) (B2G)
                 (B3G) (B1U) (B1U) (B2U) (AG) (B1G) (B2U) (B3U)
                 (AG) (B1U) (B1G) (B3G) (B3U) (B2G) (B2U) (B3G)
                 (B3G) (AU) (AG) (B1U) (B2G) (AG) (B2U) (B1U) (B3G)
                 (AU) (B2U) (AG) (B2G) (B1U) (AG) (AU) (B2U) (AG)
                 (B1U) (B1U) (AU) (B2G) (B3G) (B2U) (B3G) (B2G)
                 (AU) (AG) (B2U) (B3G) (AG) (B1U) (B3G) (B2U) (AG)
                 (B1U) (B3G) (B1U) (B1U) (B3G) (B3G) (B2U) (AG)
                 (B1U) (AG) (B2U) (B2U) (B3G) (AG) (B1U) (B3G)
                 (AG) (B1U) (B2U) (B2U) (AG) (B1U) (B3G) (B3G)
                 (B1U) (AG) (B2U) (AG) (B3G) (B1U) (AG) (B3G) (B1U)
                 (B1U) (B2U) (B3G) (AG) (B2U) (B3G) (B1U) (B1U)
                 (B1U) (B3G)
 The electronic state of the initial guess is 1-AG.
 Requested convergence on RMS density matrix=1.00D-08 within 128 cycles.
 Requested convergence on MAX density matrix=1.00D-06.
 Requested convergence on             energy=1.00D-06.
 No special actions if energy rises.
 Rare condition: small coef for last iteration:  0.000D+00
 Rare condition: small coef for last iteration:  0.000D+00
 Rare condition: small coef for last iteration:  0.000D+00
 Rare condition: small coef for last iteration:  0.000D+00
 Restarting incremental Fock formation.
 Restarting incremental Fock formation.
 Restarting incremental Fock formation.
 Restarting incremental Fock formation.
 Restarting incremental Fock formation.
 Restarting incremental Fock formation.
 >>>>>>>>>> Convergence criterion not met.
 SCF Done:  E(RM06) =  -846.193542746     A.U. after  129 cycles
            NFock=128  Conv=0.35D-02     -V/T= 2.0060
 Convergence failure -- run terminated.
 Error termination via Lnk1e in /panfs/roc/msisoft/gaussian/g09.e01_mesabi/g09/l502.exe at Wed Aug 16 05:30:24 2017.
 Job cpu time:       0 days  5 hours 16 minutes  1.6 seconds.
 File lengths (MBytes):  RWF=    211 Int=      0 D2E=      0 Chk=      8 Scr=      1
18901.02user 60.62system 13:12.56elapsed 2392%CPU (0avgtext+0avgdata 1021908maxresident)k
182000inputs+1035560outputs (167major+25164003minor)pagefaults 0swaps
