 Entering Gaussian System, Link 0=g09
 Initial command:
 /panfs/roc/msisoft/gaussian/g09.e01_mesabi/g09/l1.exe "/scratch/graha682/4002011.mesabim3.msi.umn.edu/Gau-25799.inp" -scrdir="/scratch/graha682/4002011.mesabim3.msi.umn.edu/"
 Entering Link 1 = /panfs/roc/msisoft/gaussian/g09.e01_mesabi/g09/l1.exe PID=     25800.
  
 Copyright (c) 1988,1990,1992,1993,1995,1998,2003,2009,2015,
            Gaussian, Inc.  All Rights Reserved.
  
 This is part of the Gaussian(R) 09 program.  It is based on
 the Gaussian(R) 03 system (copyright 2003, Gaussian, Inc.),
 the Gaussian(R) 98 system (copyright 1998, Gaussian, Inc.),
 the Gaussian(R) 94 system (copyright 1995, Gaussian, Inc.),
 the Gaussian 92(TM) system (copyright 1992, Gaussian, Inc.),
 the Gaussian 90(TM) system (copyright 1990, Gaussian, Inc.),
 the Gaussian 88(TM) system (copyright 1988, Gaussian, Inc.),
 the Gaussian 86(TM) system (copyright 1986, Carnegie Mellon
 University), and the Gaussian 82(TM) system (copyright 1983,
 Carnegie Mellon University). Gaussian is a federally registered
 trademark of Gaussian, Inc.
  
 This software contains proprietary and confidential information,
 including trade secrets, belonging to Gaussian, Inc.
  
 This software is provided under written license and may be
 used, copied, transmitted, or stored only in accord with that
 written license.
  
 The following legend is applicable only to US Government
 contracts under FAR:
  
                    RESTRICTED RIGHTS LEGEND
  
 Use, reproduction and disclosure by the US Government is
 subject to restrictions as set forth in subparagraphs (a)
 and (c) of the Commercial Computer Software - Restricted
 Rights clause in FAR 52.227-19.
  
 Gaussian, Inc.
 340 Quinnipiac St., Bldg. 40, Wallingford CT 06492
  
  
 ---------------------------------------------------------------
 Warning -- This program may not be used in any manner that
 competes with the business of Gaussian, Inc. or will provide
 assistance to any competitor of Gaussian, Inc.  The licensee
 of this program is prohibited from giving any competitor of
 Gaussian, Inc. access to this program.  By using this program,
 the user acknowledges that Gaussian, Inc. is engaged in the
 business of creating and licensing software in the field of
 computational chemistry and represents and warrants to the
 licensee that it is not a competitor of Gaussian, Inc. and that
 it will not use this program in any manner prohibited above.
 ---------------------------------------------------------------
  

 Cite this work as:
 Gaussian 09, Revision E.01,
 M. J. Frisch, G. W. Trucks, H. B. Schlegel, G. E. Scuseria, 
 M. A. Robb, J. R. Cheeseman, G. Scalmani, V. Barone, B. Mennucci, 
 G. A. Petersson, H. Nakatsuji, M. Caricato, X. Li, H. P. Hratchian, 
 A. F. Izmaylov, J. Bloino, G. Zheng, J. L. Sonnenberg, M. Hada, 
 M. Ehara, K. Toyota, R. Fukuda, J. Hasegawa, M. Ishida, T. Nakajima, 
 Y. Honda, O. Kitao, H. Nakai, T. Vreven, J. A. Montgomery, Jr., 
 J. E. Peralta, F. Ogliaro, M. Bearpark, J. J. Heyd, E. Brothers, 
 K. N. Kudin, V. N. Staroverov, T. Keith, R. Kobayashi, J. Normand, 
 K. Raghavachari, A. Rendell, J. C. Burant, S. S. Iyengar, J. Tomasi, 
 M. Cossi, N. Rega, J. M. Millam, M. Klene, J. E. Knox, J. B. Cross, 
 V. Bakken, C. Adamo, J. Jaramillo, R. Gomperts, R. E. Stratmann, 
 O. Yazyev, A. J. Austin, R. Cammi, C. Pomelli, J. W. Ochterski, 
 R. L. Martin, K. Morokuma, V. G. Zakrzewski, G. A. Voth, 
 P. Salvador, J. J. Dannenberg, S. Dapprich, A. D. Daniels, 
 O. Farkas, J. B. Foresman, J. V. Ortiz, J. Cioslowski, 
 and D. J. Fox, Gaussian, Inc., Wallingford CT, 2013.
 
 ******************************************
 Gaussian 09:  ES64L-G09RevE.01 30-Nov-2015
                23-Jul-2017 
 ******************************************
 %LindaWorkers=in-cn0118
 %NProcShared=24
 Will use up to   24 processors via shared memory.
 %Mem=59800mb
 SetLPE:  input flags=" -workerwait 900 -opt "Tsnet.Node.lindarsharg: ssh " "
 SetLPE:    new flags=" -workerwait 900 -opt "Tsnet.Node.lindarsharg: ssh "  -nodelist 'in-cn0118'"
 Will use up to    1 processors via Linda.
 ---------------------------------------
 # opt aug-cc-pvtz geom=connectivity m06
 ---------------------------------------
 1/14=-1,18=20,19=15,26=3,38=1,57=2/1,3;
 2/9=110,12=2,17=6,18=5,40=1/2;
 3/5=16,6=1,7=10,11=2,16=1,25=1,30=1,71=1,74=-54/1,2,3;
 4//1;
 5/5=2,38=5/2;
 6/7=2,8=2,9=2,10=2,28=1/1;
 7//1,2,3,16;
 1/14=-1,18=20,19=15,26=3/3(2);
 2/9=110/2;
 99//99;
 2/9=110/2;
 3/5=16,6=1,7=10,11=2,16=1,25=1,30=1,71=1,74=-54/1,2,3;
 4/5=5,16=3,69=1/1;
 5/5=2,38=5/2;
 7//1,2,3,16;
 1/14=-1,18=20,19=15,26=3/3(-5);
 2/9=110/2;
 6/7=2,8=2,9=2,10=2,19=2,28=1/1;
 99/9=1/99;
 -------------
 12h pentacene
 -------------
 Symbolic Z-matrix:
 Charge =  0 Multiplicity = 1
 C                     5.01452   1.40844   0.06965 
 C                     3.74783   0.72825   0.03662 
 C                     3.74781  -0.72826  -0.0365 
 C                     5.0145   -1.40847  -0.0694 
 C                     6.18395  -0.71776  -0.03517 
 C                     6.18396   0.7177    0.03554 
 H                     5.0095    2.50132   0.12325 
 H                     5.00947  -2.50135  -0.12302 
 H                     7.13782  -1.25071  -0.06108 
 H                     7.13783   1.25064   0.06155 
 C                     2.55138   1.40725   0.07138 
 C                     1.29777   0.73106   0.03806 
 C                     1.29775  -0.73103  -0.03827 
 C                     2.55136  -1.40724  -0.07141 
 H                     2.5531    2.50128   0.12614 
 H                     2.55308  -2.50128  -0.12617 
 C                     0.09625   1.40958   0.07457 
 C                    -1.15699   0.73454   0.04043 
 C                    -1.15701  -0.73448  -0.04089 
 C                     0.09623  -1.40953  -0.07494 
 H                     0.09852   2.50342   0.12979 
 H                     0.09851  -2.50338  -0.13014 
 C                    -2.35404   1.41539   0.06275 
 C                    -2.35406  -1.41533  -0.06331 
 H                    -2.34947   2.51034   0.09115 
 H                    -2.34952  -2.51027  -0.09197 
 C                    -4.79632   1.40806  -0.15852 
 C                    -6.06342   0.65171  -0.38867 
 C                    -6.06331  -0.65177   0.38954 
 C                    -4.79625  -1.40804   0.15864 
 H                    -4.78939   2.50044  -0.22958 
 H                    -6.14344   0.42821  -1.47805 
 H                    -6.94782  -1.25782   0.13772 
 H                    -4.7894   -2.50045   0.22926 
 C                    -3.61575  -0.74095   0.00677 
 C                    -3.61577   0.74099  -0.00705 
 H                    -6.1432   -0.42882   1.47896 
 H                    -6.94784   1.2578   -0.13678 
 

 GradGradGradGradGradGradGradGradGradGradGradGradGradGradGradGradGradGrad
 Berny optimization.
 Initialization pass.
                           ----------------------------
                           !    Initial Parameters    !
                           ! (Angstroms and Degrees)  !
 --------------------------                            --------------------------
 ! Name  Definition              Value          Derivative Info.                !
 --------------------------------------------------------------------------------
 ! R1    R(1,2)                  1.4381         estimate D2E/DX2                !
 ! R2    R(1,6)                  1.3586         estimate D2E/DX2                !
 ! R3    R(1,7)                  1.0942         estimate D2E/DX2                !
 ! R4    R(2,3)                  1.4583         estimate D2E/DX2                !
 ! R5    R(2,11)                 1.3761         estimate D2E/DX2                !
 ! R6    R(3,4)                  1.4381         estimate D2E/DX2                !
 ! R7    R(3,14)                 1.3761         estimate D2E/DX2                !
 ! R8    R(4,5)                  1.3586         estimate D2E/DX2                !
 ! R9    R(4,8)                  1.0942         estimate D2E/DX2                !
 ! R10   R(5,6)                  1.4372         estimate D2E/DX2                !
 ! R11   R(5,9)                  1.093          estimate D2E/DX2                !
 ! R12   R(6,10)                 1.093          estimate D2E/DX2                !
 ! R13   R(11,12)                1.4247         estimate D2E/DX2                !
 ! R14   R(11,15)                1.0954         estimate D2E/DX2                !
 ! R15   R(12,13)                1.4641         estimate D2E/DX2                !
 ! R16   R(12,17)                1.3804         estimate D2E/DX2                !
 ! R17   R(13,14)                1.4247         estimate D2E/DX2                !
 ! R18   R(13,20)                1.3803         estimate D2E/DX2                !
 ! R19   R(14,16)                1.0954         estimate D2E/DX2                !
 ! R20   R(17,18)                1.4239         estimate D2E/DX2                !
 ! R21   R(17,21)                1.0952         estimate D2E/DX2                !
 ! R22   R(18,19)                1.4713         estimate D2E/DX2                !
 ! R23   R(18,23)                1.3773         estimate D2E/DX2                !
 ! R24   R(19,20)                1.4239         estimate D2E/DX2                !
 ! R25   R(19,24)                1.3773         estimate D2E/DX2                !
 ! R26   R(20,22)                1.0952         estimate D2E/DX2                !
 ! R27   R(23,25)                1.0953         estimate D2E/DX2                !
 ! R28   R(23,36)                1.4324         estimate D2E/DX2                !
 ! R29   R(24,26)                1.0953         estimate D2E/DX2                !
 ! R30   R(24,35)                1.4323         estimate D2E/DX2                !
 ! R31   R(27,28)                1.4935         estimate D2E/DX2                !
 ! R32   R(27,31)                1.0947         estimate D2E/DX2                !
 ! R33   R(27,36)                1.3644         estimate D2E/DX2                !
 ! R34   R(28,29)                1.5181         estimate D2E/DX2                !
 ! R35   R(28,32)                1.1149         estimate D2E/DX2                !
 ! R36   R(28,38)                1.1014         estimate D2E/DX2                !
 ! R37   R(29,30)                1.4936         estimate D2E/DX2                !
 ! R38   R(29,33)                1.1014         estimate D2E/DX2                !
 ! R39   R(29,37)                1.1149         estimate D2E/DX2                !
 ! R40   R(30,34)                1.0947         estimate D2E/DX2                !
 ! R41   R(30,35)                1.3644         estimate D2E/DX2                !
 ! R42   R(35,36)                1.482          estimate D2E/DX2                !
 ! A1    A(2,1,6)              121.1382         estimate D2E/DX2                !
 ! A2    A(2,1,7)              118.0004         estimate D2E/DX2                !
 ! A3    A(6,1,7)              120.8614         estimate D2E/DX2                !
 ! A4    A(1,2,3)              118.2635         estimate D2E/DX2                !
 ! A5    A(1,2,11)             122.1295         estimate D2E/DX2                !
 ! A6    A(3,2,11)             119.607          estimate D2E/DX2                !
 ! A7    A(2,3,4)              118.263          estimate D2E/DX2                !
 ! A8    A(2,3,14)             119.6077         estimate D2E/DX2                !
 ! A9    A(4,3,14)             122.1293         estimate D2E/DX2                !
 ! A10   A(3,4,5)              121.1383         estimate D2E/DX2                !
 ! A11   A(3,4,8)              118.0005         estimate D2E/DX2                !
 ! A12   A(5,4,8)              120.8612         estimate D2E/DX2                !
 ! A13   A(4,5,6)              120.5985         estimate D2E/DX2                !
 ! A14   A(4,5,9)              120.1796         estimate D2E/DX2                !
 ! A15   A(6,5,9)              119.2219         estimate D2E/DX2                !
 ! A16   A(1,6,5)              120.5984         estimate D2E/DX2                !
 ! A17   A(1,6,10)             120.1797         estimate D2E/DX2                !
 ! A18   A(5,6,10)             119.2218         estimate D2E/DX2                !
 ! A19   A(2,11,12)            122.0211         estimate D2E/DX2                !
 ! A20   A(2,11,15)            119.5176         estimate D2E/DX2                !
 ! A21   A(12,11,15)           118.4613         estimate D2E/DX2                !
 ! A22   A(11,12,13)           118.3719         estimate D2E/DX2                !
 ! A23   A(11,12,17)           122.1394         estimate D2E/DX2                !
 ! A24   A(13,12,17)           119.4887         estimate D2E/DX2                !
 ! A25   A(12,13,14)           118.371          estimate D2E/DX2                !
 ! A26   A(12,13,20)           119.4899         estimate D2E/DX2                !
 ! A27   A(14,13,20)           122.1391         estimate D2E/DX2                !
 ! A28   A(3,14,13)            122.0211         estimate D2E/DX2                !
 ! A29   A(3,14,16)            119.5173         estimate D2E/DX2                !
 ! A30   A(13,14,16)           118.4616         estimate D2E/DX2                !
 ! A31   A(12,17,18)           122.1716         estimate D2E/DX2                !
 ! A32   A(12,17,21)           119.3705         estimate D2E/DX2                !
 ! A33   A(18,17,21)           118.4578         estimate D2E/DX2                !
 ! A34   A(17,18,19)           118.3394         estimate D2E/DX2                !
 ! A35   A(17,18,23)           122.0201         estimate D2E/DX2                !
 ! A36   A(19,18,23)           119.6344         estimate D2E/DX2                !
 ! A37   A(18,19,20)           118.3382         estimate D2E/DX2                !
 ! A38   A(18,19,24)           119.6357         estimate D2E/DX2                !
 ! A39   A(20,19,24)           122.02           estimate D2E/DX2                !
 ! A40   A(13,20,19)           122.1716         estimate D2E/DX2                !
 ! A41   A(13,20,22)           119.3701         estimate D2E/DX2                !
 ! A42   A(19,20,22)           118.4582         estimate D2E/DX2                !
 ! A43   A(18,23,25)           119.403          estimate D2E/DX2                !
 ! A44   A(18,23,36)           122.1438         estimate D2E/DX2                !
 ! A45   A(25,23,36)           118.3998         estimate D2E/DX2                !
 ! A46   A(19,24,26)           119.4049         estimate D2E/DX2                !
 ! A47   A(19,24,35)           122.1432         estimate D2E/DX2                !
 ! A48   A(26,24,35)           118.3984         estimate D2E/DX2                !
 ! A49   A(28,27,31)           120.047          estimate D2E/DX2                !
 ! A50   A(28,27,36)           120.2379         estimate D2E/DX2                !
 ! A51   A(31,27,36)           119.3139         estimate D2E/DX2                !
 ! A52   A(27,28,29)           110.8403         estimate D2E/DX2                !
 ! A53   A(27,28,32)           108.2388         estimate D2E/DX2                !
 ! A54   A(27,28,38)           111.5526         estimate D2E/DX2                !
 ! A55   A(29,28,32)           109.1928         estimate D2E/DX2                !
 ! A56   A(29,28,38)           110.8132         estimate D2E/DX2                !
 ! A57   A(32,28,38)           106.0306         estimate D2E/DX2                !
 ! A58   A(28,29,30)           110.8289         estimate D2E/DX2                !
 ! A59   A(28,29,33)           110.8055         estimate D2E/DX2                !
 ! A60   A(28,29,37)           109.2208         estimate D2E/DX2                !
 ! A61   A(30,29,33)           111.5511         estimate D2E/DX2                !
 ! A62   A(30,29,37)           108.247          estimate D2E/DX2                !
 ! A63   A(33,29,37)           106.0164         estimate D2E/DX2                !
 ! A64   A(29,30,34)           120.041          estimate D2E/DX2                !
 ! A65   A(29,30,35)           120.2409         estimate D2E/DX2                !
 ! A66   A(34,30,35)           119.3185         estimate D2E/DX2                !
 ! A67   A(24,35,30)           122.5048         estimate D2E/DX2                !
 ! A68   A(24,35,36)           118.058          estimate D2E/DX2                !
 ! A69   A(30,35,36)           119.3357         estimate D2E/DX2                !
 ! A70   A(23,36,27)           122.5058         estimate D2E/DX2                !
 ! A71   A(23,36,35)           118.0572         estimate D2E/DX2                !
 ! A72   A(27,36,35)           119.3359         estimate D2E/DX2                !
 ! D1    D(6,1,2,3)             -0.0785         estimate D2E/DX2                !
 ! D2    D(6,1,2,11)           179.9401         estimate D2E/DX2                !
 ! D3    D(7,1,2,3)            179.9246         estimate D2E/DX2                !
 ! D4    D(7,1,2,11)            -0.0568         estimate D2E/DX2                !
 ! D5    D(2,1,6,5)              0.0178         estimate D2E/DX2                !
 ! D6    D(2,1,6,10)          -179.993          estimate D2E/DX2                !
 ! D7    D(7,1,6,5)           -179.9854         estimate D2E/DX2                !
 ! D8    D(7,1,6,10)             0.0037         estimate D2E/DX2                !
 ! D9    D(1,2,3,4)              0.1068         estimate D2E/DX2                !
 ! D10   D(1,2,3,14)          -179.9106         estimate D2E/DX2                !
 ! D11   D(11,2,3,4)          -179.9114         estimate D2E/DX2                !
 ! D12   D(11,2,3,14)            0.0713         estimate D2E/DX2                !
 ! D13   D(1,2,11,12)          179.9774         estimate D2E/DX2                !
 ! D14   D(1,2,11,15)           -0.0089         estimate D2E/DX2                !
 ! D15   D(3,2,11,12)           -0.0038         estimate D2E/DX2                !
 ! D16   D(3,2,11,15)         -179.99           estimate D2E/DX2                !
 ! D17   D(2,3,4,5)             -0.0786         estimate D2E/DX2                !
 ! D18   D(2,3,4,8)            179.9258         estimate D2E/DX2                !
 ! D19   D(14,3,4,5)           179.9392         estimate D2E/DX2                !
 ! D20   D(14,3,4,8)            -0.0564         estimate D2E/DX2                !
 ! D21   D(2,3,14,13)           -0.0019         estimate D2E/DX2                !
 ! D22   D(2,3,14,16)         -179.9902         estimate D2E/DX2                !
 ! D23   D(4,3,14,13)          179.9801         estimate D2E/DX2                !
 ! D24   D(4,3,14,16)           -0.0083         estimate D2E/DX2                !
 ! D25   D(3,4,5,6)              0.0179         estimate D2E/DX2                !
 ! D26   D(3,4,5,9)           -179.9927         estimate D2E/DX2                !
 ! D27   D(8,4,5,6)           -179.9867         estimate D2E/DX2                !
 ! D28   D(8,4,5,9)              0.0028         estimate D2E/DX2                !
 ! D29   D(4,5,6,1)              0.0142         estimate D2E/DX2                !
 ! D30   D(4,5,6,10)          -179.975          estimate D2E/DX2                !
 ! D31   D(9,5,6,1)           -179.9753         estimate D2E/DX2                !
 ! D32   D(9,5,6,10)             0.0354         estimate D2E/DX2                !
 ! D33   D(2,11,12,13)          -0.1265         estimate D2E/DX2                !
 ! D34   D(2,11,12,17)         179.9138         estimate D2E/DX2                !
 ! D35   D(15,11,12,13)        179.8598         estimate D2E/DX2                !
 ! D36   D(15,11,12,17)         -0.0999         estimate D2E/DX2                !
 ! D37   D(11,12,13,14)          0.1897         estimate D2E/DX2                !
 ! D38   D(11,12,13,20)       -179.8501         estimate D2E/DX2                !
 ! D39   D(17,12,13,14)       -179.8495         estimate D2E/DX2                !
 ! D40   D(17,12,13,20)          0.1107         estimate D2E/DX2                !
 ! D41   D(11,12,17,18)        179.9586         estimate D2E/DX2                !
 ! D42   D(11,12,17,21)          0.0724         estimate D2E/DX2                !
 ! D43   D(13,12,17,18)         -0.0007         estimate D2E/DX2                !
 ! D44   D(13,12,17,21)       -179.8869         estimate D2E/DX2                !
 ! D45   D(12,13,14,3)          -0.1284         estimate D2E/DX2                !
 ! D46   D(12,13,14,16)        179.86           estimate D2E/DX2                !
 ! D47   D(20,13,14,3)         179.9125         estimate D2E/DX2                !
 ! D48   D(20,13,14,16)         -0.0991         estimate D2E/DX2                !
 ! D49   D(12,13,20,19)         -0.0052         estimate D2E/DX2                !
 ! D50   D(12,13,20,22)       -179.8854         estimate D2E/DX2                !
 ! D51   D(14,13,20,19)        179.9534         estimate D2E/DX2                !
 ! D52   D(14,13,20,22)          0.0733         estimate D2E/DX2                !
 ! D53   D(12,17,18,19)         -0.2035         estimate D2E/DX2                !
 ! D54   D(12,17,18,23)       -179.2989         estimate D2E/DX2                !
 ! D55   D(21,17,18,19)        179.6836         estimate D2E/DX2                !
 ! D56   D(21,17,18,23)          0.5882         estimate D2E/DX2                !
 ! D57   D(17,18,19,20)          0.2988         estimate D2E/DX2                !
 ! D58   D(17,18,19,24)        179.4179         estimate D2E/DX2                !
 ! D59   D(23,18,19,20)        179.4164         estimate D2E/DX2                !
 ! D60   D(23,18,19,24)         -1.4645         estimate D2E/DX2                !
 ! D61   D(17,18,23,25)          1.0186         estimate D2E/DX2                !
 ! D62   D(17,18,23,36)        178.3175         estimate D2E/DX2                !
 ! D63   D(19,18,23,25)       -178.0654         estimate D2E/DX2                !
 ! D64   D(19,18,23,36)         -0.7665         estimate D2E/DX2                !
 ! D65   D(18,19,20,13)         -0.199          estimate D2E/DX2                !
 ! D66   D(18,19,20,22)        179.6821         estimate D2E/DX2                !
 ! D67   D(24,19,20,13)       -179.2959         estimate D2E/DX2                !
 ! D68   D(24,19,20,22)          0.5853         estimate D2E/DX2                !
 ! D69   D(18,19,24,26)       -178.0811         estimate D2E/DX2                !
 ! D70   D(18,19,24,35)         -0.7852         estimate D2E/DX2                !
 ! D71   D(20,19,24,26)          1.0044         estimate D2E/DX2                !
 ! D72   D(20,19,24,35)        178.3003         estimate D2E/DX2                !
 ! D73   D(18,23,36,27)       -171.3649         estimate D2E/DX2                !
 ! D74   D(18,23,36,35)          4.951          estimate D2E/DX2                !
 ! D75   D(25,23,36,27)          5.9599         estimate D2E/DX2                !
 ! D76   D(25,23,36,35)       -177.7241         estimate D2E/DX2                !
 ! D77   D(19,24,35,30)       -171.3396         estimate D2E/DX2                !
 ! D78   D(19,24,35,36)          4.9695         estimate D2E/DX2                !
 ! D79   D(26,24,35,30)          5.9824         estimate D2E/DX2                !
 ! D80   D(26,24,35,36)       -177.7085         estimate D2E/DX2                !
 ! D81   D(31,27,28,29)       -151.646          estimate D2E/DX2                !
 ! D82   D(31,27,28,32)         88.6306         estimate D2E/DX2                !
 ! D83   D(31,27,28,38)        -27.6503         estimate D2E/DX2                !
 ! D84   D(36,27,28,29)         35.673          estimate D2E/DX2                !
 ! D85   D(36,27,28,32)        -84.0504         estimate D2E/DX2                !
 ! D86   D(36,27,28,38)        159.6687         estimate D2E/DX2                !
 ! D87   D(28,27,36,23)        172.6852         estimate D2E/DX2                !
 ! D88   D(28,27,36,35)         -3.5854         estimate D2E/DX2                !
 ! D89   D(31,27,36,23)         -0.0493         estimate D2E/DX2                !
 ! D90   D(31,27,36,35)       -176.3199         estimate D2E/DX2                !
 ! D91   D(27,28,29,30)        -49.6116         estimate D2E/DX2                !
 ! D92   D(27,28,29,33)       -174.0132         estimate D2E/DX2                !
 ! D93   D(27,28,29,37)         69.5597         estimate D2E/DX2                !
 ! D94   D(32,28,29,30)         69.539          estimate D2E/DX2                !
 ! D95   D(32,28,29,33)        -54.8626         estimate D2E/DX2                !
 ! D96   D(32,28,29,37)       -171.2897         estimate D2E/DX2                !
 ! D97   D(38,28,29,30)       -174.0289         estimate D2E/DX2                !
 ! D98   D(38,28,29,33)         61.5695         estimate D2E/DX2                !
 ! D99   D(38,28,29,37)        -54.8576         estimate D2E/DX2                !
 ! D100  D(28,29,30,34)       -151.623          estimate D2E/DX2                !
 ! D101  D(28,29,30,35)         35.6815         estimate D2E/DX2                !
 ! D102  D(33,29,30,34)        -27.6467         estimate D2E/DX2                !
 ! D103  D(33,29,30,35)        159.6578         estimate D2E/DX2                !
 ! D104  D(37,29,30,34)         88.6211         estimate D2E/DX2                !
 ! D105  D(37,29,30,35)        -84.0744         estimate D2E/DX2                !
 ! D106  D(29,30,35,24)        172.665          estimate D2E/DX2                !
 ! D107  D(29,30,35,36)         -3.5987         estimate D2E/DX2                !
 ! D108  D(34,30,35,24)         -0.0831         estimate D2E/DX2                !
 ! D109  D(34,30,35,36)       -176.3468         estimate D2E/DX2                !
 ! D110  D(24,35,36,23)         -6.9135         estimate D2E/DX2                !
 ! D111  D(24,35,36,27)        169.5227         estimate D2E/DX2                !
 ! D112  D(30,35,36,23)        169.516          estimate D2E/DX2                !
 ! D113  D(30,35,36,27)        -14.0477         estimate D2E/DX2                !
 --------------------------------------------------------------------------------
 Trust Radius=3.00D-01 FncErr=1.00D-07 GrdErr=1.00D-06
 Number of steps in this run=    228 maximum allowed number of steps=    228.
 GradGradGradGradGradGradGradGradGradGradGradGradGradGradGradGradGradGrad

                          Input orientation:                          
 ---------------------------------------------------------------------
 Center     Atomic      Atomic             Coordinates (Angstroms)
 Number     Number       Type             X           Y           Z
 ---------------------------------------------------------------------
      1          6           0        5.014515    1.408435    0.069652
      2          6           0        3.747828    0.728252    0.036620
      3          6           0        3.747814   -0.728260   -0.036502
      4          6           0        5.014498   -1.408466   -0.069403
      5          6           0        6.183946   -0.717755   -0.035172
      6          6           0        6.183956    0.717704    0.035541
      7          1           0        5.009501    2.501315    0.123250
      8          1           0        5.009474   -2.501346   -0.123022
      9          1           0        7.137817   -1.250713   -0.061084
     10          1           0        7.137834    1.250643    0.061546
     11          6           0        2.551375    1.407252    0.071383
     12          6           0        1.297771    0.731061    0.038063
     13          6           0        1.297754   -0.731030   -0.038272
     14          6           0        2.551359   -1.407243   -0.071405
     15          1           0        2.553095    2.501284    0.126140
     16          1           0        2.553076   -2.501275   -0.126165
     17          6           0        0.096248    1.409576    0.074566
     18          6           0       -1.156989    0.734537    0.040432
     19          6           0       -1.157006   -0.734484   -0.040887
     20          6           0        0.096233   -1.409532   -0.074942
     21          1           0        0.098517    2.503422    0.129786
     22          1           0        0.098508   -2.503380   -0.130137
     23          6           0       -2.354044    1.415391    0.062745
     24          6           0       -2.354063   -1.415333   -0.063306
     25          1           0       -2.349465    2.510335    0.091150
     26          1           0       -2.349522   -2.510266   -0.091972
     27          6           0       -4.796321    1.408060   -0.158516
     28          6           0       -6.063423    0.651712   -0.388674
     29          6           0       -6.063312   -0.651771    0.389539
     30          6           0       -4.796246   -1.408039    0.158642
     31          1           0       -4.789392    2.500436   -0.229575
     32          1           0       -6.143442    0.428211   -1.478045
     33          1           0       -6.947824   -1.257817    0.137720
     34          1           0       -4.789403   -2.500453    0.229262
     35          6           0       -3.615750   -0.740947    0.006767
     36          6           0       -3.615765    0.740987   -0.007045
     37          1           0       -6.143196   -0.428824    1.478961
     38          1           0       -6.947843    1.257800   -0.136779
 ---------------------------------------------------------------------
                    Distance matrix (angstroms):
                    1          2          3          4          5
     1  C    0.000000
     2  C    1.438136   0.000000
     3  C    2.486215   1.458346   0.000000
     4  C    2.820331   2.486214   1.438142   0.000000
     5  C    2.428835   2.833860   2.436155   1.358625   0.000000
     6  C    1.358626   2.436151   2.833865   2.428836   1.437200
     7  H    1.094205   2.177860   3.470955   3.914528   3.430281
     8  H    3.914529   3.470957   2.177867   1.094206   2.137358
     9  H    3.405374   3.926560   3.430114   2.129187   1.092971
    10  H    2.129189   3.430110   3.926564   3.405373   2.189486
    11  C    2.463141   1.376136   2.450208   3.743670   4.209820
    12  C    3.778097   2.450059   2.852698   4.289893   5.096973
    13  C    4.289903   2.852714   2.450062   3.778105   4.886211
    14  C    3.743672   2.450214   1.376133   2.463140   3.697620
    15  H    2.693715   2.139870   3.447283   4.624163   4.855030
    16  H    4.624160   3.447285   2.139865   2.693706   4.046287
    17  C    4.918270   3.714792   4.232802   5.670209   6.449624
    18  C    6.208257   4.904823   5.118866   6.533895   7.483595
    19  C    6.533911   5.118887   4.904826   6.208263   7.340973
    20  C    5.670215   4.232814   3.714788   4.918268   6.127021
    21  H    5.036829   4.059234   4.877375   6.285651   6.887354
    22  H    6.285645   4.877375   4.059218   5.036813   6.342715
    23  C    7.368566   6.140495   6.468212   7.892214   8.800976
    24  C    7.892229   6.468231   6.140496   7.368567   8.566505
    25  H    7.445995   6.352620   6.905187   8.343304   9.124452
    26  H    8.343344   6.905231   6.352647   7.446023   8.719885
    27  C    9.813489   8.573372   8.808007  10.207494  11.184836
    28  C   11.113208   9.820763   9.914067  11.272382  12.328765
    29  C   11.272312   9.914004   9.820670  11.113104  12.254798
    30  C   10.207423   8.807941   8.573281   9.813394  11.003575
    31  H    9.869073   8.723280   9.129383  10.555635  11.437163
    32  H   11.307352  10.011067  10.062426  11.395494  12.464334
    33  H   12.256063  10.878955  10.710157  11.965063  13.144008
    34  H   10.555647   9.129401   8.723266   9.869048  11.120356
    35  C    8.894114   7.508776   7.363702   8.656360   9.799813
    36  C    8.656391   7.363733   7.508785   8.894126   9.907727
    37  H   11.395446  10.062382  10.010912  11.307133  12.423144
    38  H   11.965087  10.710176  10.878951  12.256064  13.279948
                    6          7          8          9         10
     6  C    0.000000
     7  H    2.137359   0.000000
     8  H    3.430282   5.008719   0.000000
     9  H    2.189487   4.317571   2.469365   0.000000
    10  H    1.092970   2.469370   4.317569   2.504360   0.000000
    11  C    3.697622   2.691105   4.621383   5.302620   4.589143
    12  C    4.886204   4.113149   4.924545   6.167933   5.863178
    13  C    5.096984   4.924552   4.113158   5.863184   6.167943
    14  C    4.209822   4.621383   2.691107   4.589140   5.302621
    15  H    4.046297   2.456408   5.578726   5.927243   4.752695
    16  H    4.855025   5.578722   2.456400   4.752682   5.927236
    17  C    6.127022   5.033321   6.282845   7.528561   7.043391
    18  C    7.340966   6.415135   6.965840   8.529673   8.310890
    19  C    7.483610   6.965856   6.415140   8.310896   8.529689
    20  C    6.449629   6.282850   5.033320   7.043388   7.528566
    21  H    6.342731   4.910989   7.016346   7.980082   7.150251
    22  H    6.887344   7.016340   4.910972   7.150232   7.980072
    23  C    8.566502   7.443432   8.342466   9.859963   9.493308
    24  C    8.800988   8.342482   7.443431   9.493308   9.859976
    25  H    8.719856   7.359042   8.905998  10.206722   9.570608
    26  H    9.124489   8.906036   7.359067   9.570634  10.206759
    27  C   11.003669   9.870600  10.556436  12.227110  11.937222
    28  C   12.254901  11.238004  11.516136  13.341637  13.222504
    29  C   12.328680  11.516078  11.237893  13.222390  13.341552
    30  C   11.184756  10.556371   9.870501  11.937122  12.227031
    31  H   11.120377   9.805243  11.002134  12.504312  11.996060
    32  H   12.423345  11.456441  11.610595  13.461739  13.395485
    33  H   13.279939  12.534309  12.024613  14.087046  14.307478
    34  H   11.437162  11.002156   9.805208  11.996030  12.504313
    35  C    9.907711   9.215247   8.803996  10.765857  10.936590
    36  C    9.799841   8.804030   9.215255  10.936604  10.765888
    37  H   12.464215  11.610612  11.456166  13.395243  13.461628
    38  H   13.144031  12.024642  12.534305  14.307487  14.087075
                   11         12         13         14         15
    11  C    0.000000
    12  C    1.424734   0.000000
    13  C    2.481096   1.464082   0.000000
    14  C    2.818115   2.481091   1.424741   0.000000
    15  H    1.095403   2.171931   3.471421   3.913516   0.000000
    16  H    3.913517   3.471420   2.171941   1.095403   5.008917
    17  C    2.455130   1.380352   2.457345   3.739431   2.688974
    18  C    3.769014   2.454764   2.860043   4.283874   4.110166
    19  C    4.283892   2.860067   2.454764   3.769019   4.925743
    20  C    3.739439   2.457357   1.380349   2.455130   4.622887
    21  H    2.687287   2.141935   3.453707   4.620629   2.454582
    22  H    4.620629   3.453713   2.141928   2.687274   5.580084
    23  C    4.905433   3.715464   4.237093   5.661116   5.026251
    24  C    5.661135   4.237119   3.715463   4.905435   6.281399
    25  H    5.023486   4.058444   4.881127   6.276298   4.902693
    26  H    6.276338   4.881174   4.058471   5.023516   7.014190
    27  C    7.351292   6.134731   6.459715   7.869048   7.435730
    28  C    8.660095   7.373980   7.498112   8.863093   8.827816
    29  C    8.863049   7.498087   7.373913   8.660009   9.178976
    30  C    7.868991   6.459670   6.134652   7.351205   8.324462
    31  H    7.427818   6.344751   6.894368   8.317548   7.351099
    32  H    8.885893   7.600128   7.667345   8.997060   9.082995
    33  H    9.866194   8.482653   8.264262   9.502660  10.217555
    34  H    8.317578   6.894413   6.344755   7.427806   8.884834
    35  C    6.530878   5.129374   4.913720   6.203491   6.970004
    36  C    6.203521   4.913753   5.129374   6.530885   6.416480
    37  H    8.997112   7.667432   7.600070   8.885732   9.275836
    38  H    9.502674   8.264271   8.482630   9.866183   9.585573
                   16         17         18         19         20
    16  H    0.000000
    17  C    4.622884   0.000000
    18  C    4.925730   1.423884   0.000000
    19  C    4.110174   2.486155   1.471270   0.000000
    20  C    2.688978   2.823070   2.486143   1.423888   0.000000
    21  H    5.580086   1.095241   2.170998   3.476996   3.918307
    22  H    2.454572   3.918307   3.476992   2.171008   1.095242
    23  C    6.281384   2.450327   1.377316   2.462844   3.742059
    24  C    5.026255   3.742077   2.462862   1.377317   2.450330
    25  H    7.014155   2.682062   2.139633   3.459515   4.623244
    26  H    4.902725   4.623277   3.459539   2.139651   2.682093
    27  C    8.324517   4.898118   3.706474   4.224801   5.646494
    28  C    9.179014   6.223383   4.925859   5.110325   6.502962
    29  C    8.827727   6.502964   5.110355   4.925845   6.223338
    30  C    7.435645   5.646461   4.224784   3.706421   4.898052
    31  H    8.884798   5.015173   4.047920   4.867704   6.259480
    32  H    9.275715   6.504415   5.221525   5.318066   6.654287
    33  H    9.585558   7.532458   6.124762   5.817160   7.048899
    34  H    7.351077   6.259540   4.867777   4.047954   5.015186
    35  C    6.416451   4.290487   2.867698   2.459214   3.772599
    36  C    6.970011   3.772627   2.459243   2.867692   4.290486
    37  H    9.082766   6.654525   5.318368   5.221634   6.504374
    38  H   10.217545   7.048895   5.817147   6.124719   7.532429
                   21         22         23         24         25
    21  H    0.000000
    22  H    5.013544   0.000000
    23  C    2.683908   4.626984   0.000000
    24  C    4.626994   2.683918   2.833529   0.000000
    25  H    2.448297   5.583805   1.095322   3.928708   0.000000
    26  H    5.583828   2.448337   3.928707   1.095318   5.023939
    27  C    5.024179   6.265742   2.452290   3.734332   2.695264
    28  C    6.455009   6.927542   3.813984   4.258860   4.180693
    29  C    6.927543   6.454963   4.258946   3.814004   4.886779
    30  C    6.265705   5.024120   3.734341   2.452259   4.620059
    31  H    4.901102   6.995686   2.682106   4.614295   2.460936
    32  H    6.771534   7.026594   4.208099   4.445170   4.603463
    33  H    7.987359   7.160584   5.315494   4.600855   5.945254
    34  H    6.995743   4.901107   4.614384   2.682156   5.574977
    35  C    4.933239   4.113469   2.498966   1.432327   3.490191
    36  C    4.113489   4.933244   1.432352   2.498954   2.178015
    37  H    7.026900   6.771399   4.445725   4.208244   4.995705
    38  H    7.160574   7.987339   4.600830   5.315435   4.771360
                   26         27         28         29         30
    26  H    0.000000
    27  C    4.620014   0.000000
    28  C    4.886635   1.493513   0.000000
    29  C    4.180681   2.479624   1.518118   0.000000
    30  C    2.695212   2.833902   2.479489   1.493556   0.000000
    31  H    5.574857   1.094707   2.250833   3.455804   3.927714
    32  H    4.994965   2.125087   1.114937   2.158854   2.804549
    33  H    4.771349   3.438549   2.169230   1.101393   2.156917
    34  H    2.460956   3.927708   3.455592   2.250813   1.094716
    35  C    2.177974   2.457498   2.843761   2.478916   1.364422
    36  C    3.490162   1.364420   2.478839   2.843860   2.457499
    37  H    4.603498   2.805271   2.159162   1.114866   2.125177
    38  H    5.945156   2.156872   1.101359   2.169301   3.438509
                   31         32         33         34         35
    31  H    0.000000
    32  H    2.772408   0.000000
    33  H    4.349506   2.469902   0.000000
    34  H    5.021894   3.650396   2.492249   0.000000
    35  C    3.455410   3.156077   3.374466   2.126694   0.000000
    36  C    2.126636   2.941228   3.888289   3.455460   1.481998
    37  H    3.651362   3.078700   1.770193   2.772391   2.941557
    38  H    2.492321   1.770388   2.530549   4.349404   3.888244
                   36         37         38
    36  C    0.000000
    37  H    3.156672   0.000000
    38  H    3.374414   2.470379   0.000000
 Stoichiometry    C22H16
 Framework group  C1[X(C22H16)]
 Deg. of freedom   108
 Full point group                 C1      NOp   1
 Largest Abelian subgroup         C1      NOp   1
 Largest concise Abelian subgroup C1      NOp   1
                         Standard orientation:                         
 ---------------------------------------------------------------------
 Center     Atomic      Atomic             Coordinates (Angstroms)
 Number     Number       Type             X           Y           Z
 ---------------------------------------------------------------------
      1          6           0        5.014515    1.408435    0.069652
      2          6           0        3.747828    0.728252    0.036620
      3          6           0        3.747814   -0.728260   -0.036502
      4          6           0        5.014498   -1.408466   -0.069403
      5          6           0        6.183946   -0.717755   -0.035172
      6          6           0        6.183956    0.717704    0.035541
      7          1           0        5.009501    2.501315    0.123250
      8          1           0        5.009474   -2.501346   -0.123022
      9          1           0        7.137817   -1.250713   -0.061084
     10          1           0        7.137834    1.250643    0.061546
     11          6           0        2.551375    1.407252    0.071383
     12          6           0        1.297771    0.731061    0.038063
     13          6           0        1.297754   -0.731030   -0.038272
     14          6           0        2.551359   -1.407243   -0.071405
     15          1           0        2.553095    2.501284    0.126140
     16          1           0        2.553076   -2.501275   -0.126165
     17          6           0        0.096248    1.409576    0.074566
     18          6           0       -1.156989    0.734537    0.040432
     19          6           0       -1.157006   -0.734484   -0.040887
     20          6           0        0.096233   -1.409532   -0.074942
     21          1           0        0.098517    2.503422    0.129786
     22          1           0        0.098508   -2.503380   -0.130137
     23          6           0       -2.354044    1.415391    0.062745
     24          6           0       -2.354063   -1.415333   -0.063306
     25          1           0       -2.349465    2.510335    0.091150
     26          1           0       -2.349522   -2.510266   -0.091972
     27          6           0       -4.796321    1.408060   -0.158516
     28          6           0       -6.063423    0.651712   -0.388674
     29          6           0       -6.063312   -0.651771    0.389539
     30          6           0       -4.796246   -1.408039    0.158642
     31          1           0       -4.789392    2.500436   -0.229575
     32          1           0       -6.143442    0.428211   -1.478045
     33          1           0       -6.947824   -1.257817    0.137720
     34          1           0       -4.789403   -2.500453    0.229262
     35          6           0       -3.615750   -0.740947    0.006767
     36          6           0       -3.615765    0.740987   -0.007045
     37          1           0       -6.143196   -0.428824    1.478961
     38          1           0       -6.947843    1.257800   -0.136779
 ---------------------------------------------------------------------
 Rotational constants (GHZ):      1.2888891      0.1155187      0.1064417
 Standard basis: Aug-CC-pVTZ (5D, 7F)
 There are  1610 symmetry adapted cartesian basis functions of A   symmetry.
 There are  1380 symmetry adapted basis functions of A   symmetry.
  1380 basis functions,  2016 primitive gaussians,  1610 cartesian basis functions
    74 alpha electrons       74 beta electrons
       nuclear repulsion energy      1524.5832365085 Hartrees.
 NAtoms=   38 NActive=   38 NUniq=   38 SFac= 1.00D+00 NAtFMM=   60 NAOKFM=F Big=F
 Integral buffers will be    131072 words long.
 Raffenetti 2 integral format.
 Two-electron integral symmetry is turned on.
 One-electron integrals computed using PRISM.
 NBasis=  1380 RedAO= T EigKep=  1.00D-06  NBF=  1380
 NBsUse=  1357 1.00D-06 EigRej=  9.41D-07 NBFU=  1357
 ExpMin= 2.53D-02 ExpMax= 8.24D+03 ExpMxC= 2.81D+02 IAcc=3 IRadAn=         5 AccDes= 0.00D+00
 Harris functional with IExCor= 1009 and IRadAn=       5 diagonalized for initial guess.
 HarFok:  IExCor= 1009 AccDes= 0.00D+00 IRadAn=         5 IDoV= 1 UseB2=F ITyADJ=14
 ICtDFT=  3500011 ScaDFX=  1.000000  1.000000  1.000000  1.000000
 FoFCou: FMM=F IPFlag=           0 FMFlag=      100000 FMFlg1=           0
         NFxFlg=           0 DoJE=T BraDBF=F KetDBF=T FulRan=T
         wScrn=  0.000000 ICntrl=     500 IOpCl=  0 I1Cent=   200000004 NGrid=           0
         NMat0=    1 NMatS0=      1 NMatT0=    0 NMatD0=    1 NMtDS0=    0 NMtDT0=    0
 Petite list used in FoFCou.
 Requested convergence on RMS density matrix=1.00D-08 within 128 cycles.
 Requested convergence on MAX density matrix=1.00D-06.
 Requested convergence on             energy=1.00D-06.
 No special actions if energy rises.
 Rare condition: small coef for last iteration:  0.000D+00
 EnCoef did     3 forward-backward iterations
 EnCoef did     7 forward-backward iterations
 EnCoef did     3 forward-backward iterations
 EnCoef did     7 forward-backward iterations
 EnCoef did     7 forward-backward iterations
 EnCoef did     2 forward-backward iterations
 EnCoef did     5 forward-backward iterations
 EnCoef did     8 forward-backward iterations
 EnCoef did    11 forward-backward iterations
 EnCoef did     9 forward-backward iterations
 Restarting incremental Fock formation.
 Rare condition: small coef for last iteration:  0.000D+00
 EnCoef did   100 forward-backward iterations
 EnCoef did   100 forward-backward iterations
 EnCoef did   100 forward-backward iterations
 EnCoef did   100 forward-backward iterations
 EnCoef did   100 forward-backward iterations
 EnCoef did   100 forward-backward iterations
 EnCoef did   100 forward-backward iterations
 EnCoef did   100 forward-backward iterations
 EnCoef did   100 forward-backward iterations
 EnCoef did   100 forward-backward iterations
 EnCoef did   100 forward-backward iterations
 EnCoef did   100 forward-backward iterations
 EnCoef did   100 forward-backward iterations
 EnCoef did   100 forward-backward iterations
 EnCoef did   100 forward-backward iterations
 EnCoef did   100 forward-backward iterations
 EnCoef did   100 forward-backward iterations
 EnCoef did   100 forward-backward iterations
 EnCoef did   100 forward-backward iterations
 Restarting incremental Fock formation.
 EnCoef did   100 forward-backward iterations
 EnCoef did   100 forward-backward iterations
 EnCoef did   100 forward-backward iterations
 EnCoef did   100 forward-backward iterations
 EnCoef did   100 forward-backward iterations
 EnCoef did   100 forward-backward iterations
 EnCoef did   100 forward-backward iterations
 EnCoef did   100 forward-backward iterations
 EnCoef did   100 forward-backward iterations
 EnCoef did   100 forward-backward iterations
 EnCoef did   100 forward-backward iterations
 EnCoef did   100 forward-backward iterations
 EnCoef did   100 forward-backward iterations
 EnCoef did   100 forward-backward iterations
 EnCoef did   100 forward-backward iterations
 EnCoef did   100 forward-backward iterations
 EnCoef did   100 forward-backward iterations
 EnCoef did   100 forward-backward iterations
 EnCoef did   100 forward-backward iterations
 EnCoef did   100 forward-backward iterations
 Restarting incremental Fock formation.
 EnCoef did   100 forward-backward iterations
 EnCoef did   100 forward-backward iterations
 EnCoef did   100 forward-backward iterations
 EnCoef did   100 forward-backward iterations
 EnCoef did   100 forward-backward iterations
 EnCoef did   100 forward-backward iterations
 EnCoef did   100 forward-backward iterations
 EnCoef did   100 forward-backward iterations
 EnCoef did   100 forward-backward iterations
 EnCoef did   100 forward-backward iterations
 EnCoef did   100 forward-backward iterations
 EnCoef did   100 forward-backward iterations
 Rare condition: small coef for last iteration:  0.994D-05
 EnCoef did   100 forward-backward iterations
 EnCoef did   100 forward-backward iterations
 EnCoef did   100 forward-backward iterations
 EnCoef did   100 forward-backward iterations
 EnCoef did   100 forward-backward iterations
 EnCoef did   100 forward-backward iterations
 EnCoef did   100 forward-backward iterations
 EnCoef did   100 forward-backward iterations
 Restarting incremental Fock formation.
 EnCoef did   100 forward-backward iterations
 EnCoef did   100 forward-backward iterations
 EnCoef did   100 forward-backward iterations
 Rare condition: small coef for last iteration:  0.886D-05
 EnCoef did   100 forward-backward iterations
 EnCoef did   100 forward-backward iterations
 EnCoef did   100 forward-backward iterations
 EnCoef did   100 forward-backward iterations
 EnCoef did   100 forward-backward iterations
 EnCoef did   100 forward-backward iterations
 EnCoef did   100 forward-backward iterations
 EnCoef did   100 forward-backward iterations
 EnCoef did   100 forward-backward iterations
 Rare condition: small coef for last iteration:  0.880D-05
 EnCoef did   100 forward-backward iterations
 Rare condition: small coef for last iteration:  0.000D+00
 EnCoef did   100 forward-backward iterations
 EnCoef did   100 forward-backward iterations
 Rare condition: small coef for last iteration:  0.395D-15
 EnCoef did   100 forward-backward iterations
 EnCoef did   100 forward-backward iterations
 Rare condition: small coef for last iteration: -0.339D-15
 EnCoef did   100 forward-backward iterations
 EnCoef did   100 forward-backward iterations
 Rare condition: small coef for last iteration:  0.565D-15
 EnCoef did   100 forward-backward iterations
 Restarting incremental Fock formation.
 EnCoef did   100 forward-backward iterations
 Rare condition: small coef for last iteration: -0.792D-15
 EnCoef did   100 forward-backward iterations
 EnCoef did   100 forward-backward iterations
 Rare condition: small coef for last iteration: -0.113D-15
 EnCoef did   100 forward-backward iterations
 EnCoef did   100 forward-backward iterations
 Rare condition: small coef for last iteration:  0.396D-15
 EnCoef did   100 forward-backward iterations
 EnCoef did   100 forward-backward iterations
 Rare condition: small coef for last iteration:  0.226D-15
 EnCoef did   100 forward-backward iterations
 EnCoef did   100 forward-backward iterations
 Rare condition: small coef for last iteration: -0.566D-15
 EnCoef did   100 forward-backward iterations
 EnCoef did   100 forward-backward iterations
 Rare condition: small coef for last iteration: -0.339D-15
 EnCoef did   100 forward-backward iterations
 EnCoef did   100 forward-backward iterations
 Rare condition: small coef for last iteration:  0.000D+00
 EnCoef did   100 forward-backward iterations
 EnCoef did   100 forward-backward iterations
 Rare condition: small coef for last iteration: -0.226D-15
 EnCoef did   100 forward-backward iterations
 EnCoef did   100 forward-backward iterations
 Rare condition: small coef for last iteration:  0.679D-15
 EnCoef did   100 forward-backward iterations
 EnCoef did   100 forward-backward iterations
 Rare condition: small coef for last iteration: -0.113D-15
 EnCoef did   100 forward-backward iterations
 Restarting incremental Fock formation.
 EnCoef did   100 forward-backward iterations
 Rare condition: small coef for last iteration: -0.452D-15
 EnCoef did   100 forward-backward iterations
 EnCoef did   100 forward-backward iterations
 Rare condition: small coef for last iteration: -0.226D-15
 EnCoef did   100 forward-backward iterations
 EnCoef did   100 forward-backward iterations
 Rare condition: small coef for last iteration: -0.339D-15
 EnCoef did   100 forward-backward iterations
 EnCoef did   100 forward-backward iterations
 Rare condition: small coef for last iteration: -0.452D-15
 EnCoef did   100 forward-backward iterations
 >>>>>>>>>> Convergence criterion not met.
 SCF Done:  E(RM06) =  -538.016393608     A.U. after  129 cycles
            NFock=128  Conv=0.27D+03     -V/T= 1.6069
 Convergence failure -- run terminated.
 Error termination via Lnk1e in /panfs/roc/msisoft/gaussian/g09.e01_mesabi/g09/l502.exe at Mon Jul 24 09:01:38 2017.
 Job cpu time:      13 days 12 hours 31 minutes 30.4 seconds.
 File lengths (MBytes):  RWF=    977 Int=      0 D2E=      0 Chk=     30 Scr=      1
1167327.24user 963.50system 13:32:19elapsed 2396%CPU (0avgtext+0avgdata 2288868maxresident)k
184944inputs+44091304outputs (123major+463743545minor)pagefaults 0swaps
