 Entering Gaussian System, Link 0=g09
 Initial command:
 /soft/gaussian/g09.d01_itasca/g09/l1.exe "/scratch/graha682/1917625.node1081.localdomain/Gau-17599.inp" -scrdir="/scratch/graha682/1917625.node1081.localdomain/"
 Entering Link 1 = /soft/gaussian/g09.d01_itasca/g09/l1.exe PID=     17600.
  
 Copyright (c) 1988,1990,1992,1993,1995,1998,2003,2009,2013,
            Gaussian, Inc.  All Rights Reserved.
  
 This is part of the Gaussian(R) 09 program.  It is based on
 the Gaussian(R) 03 system (copyright 2003, Gaussian, Inc.),
 the Gaussian(R) 98 system (copyright 1998, Gaussian, Inc.),
 the Gaussian(R) 94 system (copyright 1995, Gaussian, Inc.),
 the Gaussian 92(TM) system (copyright 1992, Gaussian, Inc.),
 the Gaussian 90(TM) system (copyright 1990, Gaussian, Inc.),
 the Gaussian 88(TM) system (copyright 1988, Gaussian, Inc.),
 the Gaussian 86(TM) system (copyright 1986, Carnegie Mellon
 University), and the Gaussian 82(TM) system (copyright 1983,
 Carnegie Mellon University). Gaussian is a federally registered
 trademark of Gaussian, Inc.
  
 This software contains proprietary and confidential information,
 including trade secrets, belonging to Gaussian, Inc.
  
 This software is provided under written license and may be
 used, copied, transmitted, or stored only in accord with that
 written license.
  
 The following legend is applicable only to US Government
 contracts under FAR:
  
                    RESTRICTED RIGHTS LEGEND
  
 Use, reproduction and disclosure by the US Government is
 subject to restrictions as set forth in subparagraphs (a)
 and (c) of the Commercial Computer Software - Restricted
 Rights clause in FAR 52.227-19.
  
 Gaussian, Inc.
 340 Quinnipiac St., Bldg. 40, Wallingford CT 06492
  
  
 ---------------------------------------------------------------
 Warning -- This program may not be used in any manner that
 competes with the business of Gaussian, Inc. or will provide
 assistance to any competitor of Gaussian, Inc.  The licensee
 of this program is prohibited from giving any competitor of
 Gaussian, Inc. access to this program.  By using this program,
 the user acknowledges that Gaussian, Inc. is engaged in the
 business of creating and licensing software in the field of
 computational chemistry and represents and warrants to the
 licensee that it is not a competitor of Gaussian, Inc. and that
 it will not use this program in any manner prohibited above.
 ---------------------------------------------------------------
  

 Cite this work as:
 Gaussian 09, Revision D.01,
 M. J. Frisch, G. W. Trucks, H. B. Schlegel, G. E. Scuseria, 
 M. A. Robb, J. R. Cheeseman, G. Scalmani, V. Barone, B. Mennucci, 
 G. A. Petersson, H. Nakatsuji, M. Caricato, X. Li, H. P. Hratchian, 
 A. F. Izmaylov, J. Bloino, G. Zheng, J. L. Sonnenberg, M. Hada, 
 M. Ehara, K. Toyota, R. Fukuda, J. Hasegawa, M. Ishida, T. Nakajima, 
 Y. Honda, O. Kitao, H. Nakai, T. Vreven, J. A. Montgomery, Jr., 
 J. E. Peralta, F. Ogliaro, M. Bearpark, J. J. Heyd, E. Brothers, 
 K. N. Kudin, V. N. Staroverov, T. Keith, R. Kobayashi, J. Normand, 
 K. Raghavachari, A. Rendell, J. C. Burant, S. S. Iyengar, J. Tomasi, 
 M. Cossi, N. Rega, J. M. Millam, M. Klene, J. E. Knox, J. B. Cross, 
 V. Bakken, C. Adamo, J. Jaramillo, R. Gomperts, R. E. Stratmann, 
 O. Yazyev, A. J. Austin, R. Cammi, C. Pomelli, J. W. Ochterski, 
 R. L. Martin, K. Morokuma, V. G. Zakrzewski, G. A. Voth, 
 P. Salvador, J. J. Dannenberg, S. Dapprich, A. D. Daniels, 
 O. Farkas, J. B. Foresman, J. V. Ortiz, J. Cioslowski, 
 and D. J. Fox, Gaussian, Inc., Wallingford CT, 2013.
 
 ******************************************
 Gaussian 09:  ES64L-G09RevD.01 24-Apr-2013
                 7-Jul-2017 
 ******************************************
 %LindaWorkers=ic-node0047
 %NProcShared=8
 Will use up to    8 processors via shared memory.
 %Mem=11800mb
 %chk=201707_ccpVDZ_m06_12Hpentacene.chk
 SetLPE:  input flags=" -workerwait 250000 -opt "Tsnet.Node.lindarsharg: ssh " "
 SetLPE:    new flags=" -workerwait 250000 -opt "Tsnet.Node.lindarsharg: ssh "  -nodelist 'ic-node0047'"
 Will use up to    1 processors via Linda.
 ----------------------------------------
 # opt freq cc-pvdz geom=connectivity m06
 ----------------------------------------
 1/14=-1,18=20,19=15,26=3,38=1,57=2/1,3;
 2/9=110,12=2,17=6,18=5,40=1/2;
 3/5=16,11=2,16=1,25=1,30=1,71=1,74=-54/1,2,3;
 4//1;
 5/5=2,38=5/2;
 6/7=2,8=2,9=2,10=2,28=1/1;
 7//1,2,3,16;
 1/14=-1,18=20,19=15,26=3/3(2);
 2/9=110/2;
 99//99;
 2/9=110/2;
 3/5=16,11=2,16=1,25=1,30=1,71=1,74=-54/1,2,3;
 4/5=5,16=3,69=1/1;
 5/5=2,38=5/2;
 7//1,2,3,16;
 1/14=-1,18=20,19=15,26=3/3(-5);
 2/9=110/2;
 6/7=2,8=2,9=2,10=2,19=2,28=1/1;
 99/9=1/99;
 -------------------
 Title Card Required
 -------------------
 Symbolic Z-matrix:
 Charge =  0 Multiplicity = 1
 C                     0.30317   2.13787   1.60582 
 C                     1.62548   1.83495   1.25417 
 C                     2.30706   2.63978   0.3314 
 C                     1.66614   3.74719  -0.24026 
 C                     0.34375   4.04999   0.1112 
 C                    -0.3377    3.2454    1.03433 
 H                    -0.21714   1.52352   2.31062 
 H                     2.18646   4.36153  -0.94506 
 H                    -0.14561   4.89552  -0.32527 
 H                    -1.34731   3.47669   1.30281 
 C                     2.26615   0.72709   1.82519 
 C                     3.58838   0.42387   1.47337 
 C                     4.27071   1.2301    0.55231 
 C                     3.62961   2.33731  -0.01958 
 H                     1.74568   0.11253   2.52969 
 H                     4.15006   2.95189  -0.72409 
 C                     4.22733  -0.68618   2.04223 
 C                     5.54898  -0.99191   1.69015 
 C                     6.23684  -0.17573   0.77655 
 C                     5.59434   0.93002   0.2036 
 H                     3.7053   -1.30148   2.74494 
 H                     6.11501   1.54609  -0.49944 
 C                     6.1779   -2.11657   2.24853 
 C                     7.56708  -0.46347   0.44025 
 H                     5.64797  -2.73851   2.93938 
 H                     8.09202   0.15349  -0.25882 
 C                     8.10403  -3.63247   2.37467 
 C                     9.57605  -3.96242   2.00609 
 C                     10.25716  -2.62056   1.89038 
 C                     9.53934  -1.85444   0.78503 
 H                     7.54299  -4.30577   2.98851 
 H                     9.63015  -4.50092   1.08306 
 H                     11.30187  -2.69872   1.67273 
 H                     10.02625  -1.57475  -0.12579 
 C                     8.20525  -1.55796   1.03203 
 C                     7.49666  -2.42833   1.89365 
 H                     10.13052  -2.11684   2.82586 
 H                     10.03218  -4.5498    2.7754 
 

 GradGradGradGradGradGradGradGradGradGradGradGradGradGradGradGradGradGrad
 Berny optimization.
 Initialization pass.
                           ----------------------------
                           !    Initial Parameters    !
                           ! (Angstroms and Degrees)  !
 --------------------------                            --------------------------
 ! Name  Definition              Value          Derivative Info.                !
 --------------------------------------------------------------------------------
 ! R1    R(1,2)                  1.4014         estimate D2E/DX2                !
 ! R2    R(1,6)                  1.4014         estimate D2E/DX2                !
 ! R3    R(1,7)                  1.07           estimate D2E/DX2                !
 ! R4    R(2,3)                  1.4014         estimate D2E/DX2                !
 ! R5    R(2,11)                 1.4014         estimate D2E/DX2                !
 ! R6    R(3,4)                  1.4014         estimate D2E/DX2                !
 ! R7    R(3,14)                 1.4014         estimate D2E/DX2                !
 ! R8    R(4,5)                  1.4014         estimate D2E/DX2                !
 ! R9    R(4,8)                  1.07           estimate D2E/DX2                !
 ! R10   R(5,6)                  1.4014         estimate D2E/DX2                !
 ! R11   R(5,9)                  1.07           estimate D2E/DX2                !
 ! R12   R(6,10)                 1.07           estimate D2E/DX2                !
 ! R13   R(11,12)                1.4014         estimate D2E/DX2                !
 ! R14   R(11,15)                1.07           estimate D2E/DX2                !
 ! R15   R(12,13)                1.4014         estimate D2E/DX2                !
 ! R16   R(12,17)                1.4015         estimate D2E/DX2                !
 ! R17   R(13,14)                1.4014         estimate D2E/DX2                !
 ! R18   R(13,20)                1.4013         estimate D2E/DX2                !
 ! R19   R(14,16)                1.07           estimate D2E/DX2                !
 ! R20   R(17,18)                1.4015         estimate D2E/DX2                !
 ! R21   R(17,21)                1.07           estimate D2E/DX2                !
 ! R22   R(18,19)                1.405          estimate D2E/DX2                !
 ! R23   R(18,23)                1.4043         estimate D2E/DX2                !
 ! R24   R(19,20)                1.4013         estimate D2E/DX2                !
 ! R25   R(19,24)                1.4019         estimate D2E/DX2                !
 ! R26   R(20,22)                1.07           estimate D2E/DX2                !
 ! R27   R(23,25)                1.07           estimate D2E/DX2                !
 ! R28   R(23,36)                1.4008         estimate D2E/DX2                !
 ! R29   R(24,26)                1.07           estimate D2E/DX2                !
 ! R30   R(24,35)                1.3983         estimate D2E/DX2                !
 ! R31   R(27,28)                1.5529         estimate D2E/DX2                !
 ! R32   R(27,31)                1.07           estimate D2E/DX2                !
 ! R33   R(27,36)                1.4319         estimate D2E/DX2                !
 ! R34   R(28,29)                1.5093         estimate D2E/DX2                !
 ! R35   R(28,32)                1.07           estimate D2E/DX2                !
 ! R36   R(28,38)                1.07           estimate D2E/DX2                !
 ! R37   R(29,30)                1.5245         estimate D2E/DX2                !
 ! R38   R(29,33)                1.07           estimate D2E/DX2                !
 ! R39   R(29,37)                1.07           estimate D2E/DX2                !
 ! R40   R(30,34)                1.07           estimate D2E/DX2                !
 ! R41   R(30,35)                1.3888         estimate D2E/DX2                !
 ! R42   R(35,36)                1.4149         estimate D2E/DX2                !
 ! A1    A(2,1,6)              119.9998         estimate D2E/DX2                !
 ! A2    A(2,1,7)              120.0001         estimate D2E/DX2                !
 ! A3    A(6,1,7)              120.0001         estimate D2E/DX2                !
 ! A4    A(1,2,3)              120.0004         estimate D2E/DX2                !
 ! A5    A(1,2,11)             120.0005         estimate D2E/DX2                !
 ! A6    A(3,2,11)             119.9991         estimate D2E/DX2                !
 ! A7    A(2,3,4)              120.0008         estimate D2E/DX2                !
 ! A8    A(2,3,14)             119.9982         estimate D2E/DX2                !
 ! A9    A(4,3,14)             120.001          estimate D2E/DX2                !
 ! A10   A(3,4,5)              119.9997         estimate D2E/DX2                !
 ! A11   A(3,4,8)              120.0002         estimate D2E/DX2                !
 ! A12   A(5,4,8)              120.0002         estimate D2E/DX2                !
 ! A13   A(4,5,6)              119.9996         estimate D2E/DX2                !
 ! A14   A(4,5,9)              120.0002         estimate D2E/DX2                !
 ! A15   A(6,5,9)              120.0002         estimate D2E/DX2                !
 ! A16   A(1,6,5)              119.9997         estimate D2E/DX2                !
 ! A17   A(1,6,10)             120.0002         estimate D2E/DX2                !
 ! A18   A(5,6,10)             120.0002         estimate D2E/DX2                !
 ! A19   A(2,11,12)            120.0059         estimate D2E/DX2                !
 ! A20   A(2,11,15)            119.997          estimate D2E/DX2                !
 ! A21   A(12,11,15)           119.9971         estimate D2E/DX2                !
 ! A22   A(11,12,13)           119.9932         estimate D2E/DX2                !
 ! A23   A(11,12,17)           119.9754         estimate D2E/DX2                !
 ! A24   A(13,12,17)           120.0315         estimate D2E/DX2                !
 ! A25   A(12,13,14)           119.9995         estimate D2E/DX2                !
 ! A26   A(12,13,20)           120.0172         estimate D2E/DX2                !
 ! A27   A(14,13,20)           119.9832         estimate D2E/DX2                !
 ! A28   A(3,14,13)            120.0039         estimate D2E/DX2                !
 ! A29   A(3,14,16)            119.998          estimate D2E/DX2                !
 ! A30   A(13,14,16)           119.998          estimate D2E/DX2                !
 ! A31   A(12,17,18)           120.0501         estimate D2E/DX2                !
 ! A32   A(12,17,21)           119.9748         estimate D2E/DX2                !
 ! A33   A(18,17,21)           119.975          estimate D2E/DX2                !
 ! A34   A(17,18,19)           119.8893         estimate D2E/DX2                !
 ! A35   A(17,18,23)           119.8107         estimate D2E/DX2                !
 ! A36   A(19,18,23)           120.2994         estimate D2E/DX2                !
 ! A37   A(18,19,20)           119.985          estimate D2E/DX2                !
 ! A38   A(18,19,24)           120.0859         estimate D2E/DX2                !
 ! A39   A(20,19,24)           119.9287         estimate D2E/DX2                !
 ! A40   A(13,20,19)           120.0206         estimate D2E/DX2                !
 ! A41   A(13,20,22)           119.9896         estimate D2E/DX2                !
 ! A42   A(19,20,22)           119.9898         estimate D2E/DX2                !
 ! A43   A(18,23,25)           120.027          estimate D2E/DX2                !
 ! A44   A(18,23,36)           119.9413         estimate D2E/DX2                !
 ! A45   A(25,23,36)           120.0305         estimate D2E/DX2                !
 ! A46   A(19,24,26)           120.2567         estimate D2E/DX2                !
 ! A47   A(19,24,35)           119.4829         estimate D2E/DX2                !
 ! A48   A(26,24,35)           120.2591         estimate D2E/DX2                !
 ! A49   A(28,27,31)           119.9662         estimate D2E/DX2                !
 ! A50   A(28,27,36)           120.0678         estimate D2E/DX2                !
 ! A51   A(31,27,36)           119.966          estimate D2E/DX2                !
 ! A52   A(27,28,29)           104.8963         estimate D2E/DX2                !
 ! A53   A(27,28,32)           111.0757         estimate D2E/DX2                !
 ! A54   A(27,28,38)           110.4911         estimate D2E/DX2                !
 ! A55   A(29,28,32)           111.008          estimate D2E/DX2                !
 ! A56   A(29,28,38)           110.5372         estimate D2E/DX2                !
 ! A57   A(32,28,38)           108.808          estimate D2E/DX2                !
 ! A58   A(28,29,30)           106.8524         estimate D2E/DX2                !
 ! A59   A(28,29,33)           113.0331         estimate D2E/DX2                !
 ! A60   A(28,29,37)           107.3437         estimate D2E/DX2                !
 ! A61   A(30,29,33)           110.4239         estimate D2E/DX2                !
 ! A62   A(30,29,37)           109.9748         estimate D2E/DX2                !
 ! A63   A(33,29,37)           109.1344         estimate D2E/DX2                !
 ! A64   A(29,30,34)           122.2962         estimate D2E/DX2                !
 ! A65   A(29,30,35)           115.509          estimate D2E/DX2                !
 ! A66   A(34,30,35)           122.1901         estimate D2E/DX2                !
 ! A67   A(24,35,30)           122.0208         estimate D2E/DX2                !
 ! A68   A(24,35,36)           120.7057         estimate D2E/DX2                !
 ! A69   A(30,35,36)           117.2616         estimate D2E/DX2                !
 ! A70   A(23,36,27)           120.0921         estimate D2E/DX2                !
 ! A71   A(23,36,35)           119.2635         estimate D2E/DX2                !
 ! A72   A(27,36,35)           120.6271         estimate D2E/DX2                !
 ! D1    D(6,1,2,3)              0.0209         estimate D2E/DX2                !
 ! D2    D(6,1,2,11)          -179.9714         estimate D2E/DX2                !
 ! D3    D(7,1,2,3)           -179.9813         estimate D2E/DX2                !
 ! D4    D(7,1,2,11)             0.0264         estimate D2E/DX2                !
 ! D5    D(2,1,6,5)              0.0005         estimate D2E/DX2                !
 ! D6    D(2,1,6,10)           179.9994         estimate D2E/DX2                !
 ! D7    D(7,1,6,5)           -179.9972         estimate D2E/DX2                !
 ! D8    D(7,1,6,10)             0.0017         estimate D2E/DX2                !
 ! D9    D(1,2,3,4)             -0.0317         estimate D2E/DX2                !
 ! D10   D(1,2,3,14)           179.9607         estimate D2E/DX2                !
 ! D11   D(11,2,3,4)           179.9606         estimate D2E/DX2                !
 ! D12   D(11,2,3,14)           -0.047          estimate D2E/DX2                !
 ! D13   D(1,2,11,12)          179.9843         estimate D2E/DX2                !
 ! D14   D(1,2,11,15)           -0.0018         estimate D2E/DX2                !
 ! D15   D(3,2,11,12)           -0.008          estimate D2E/DX2                !
 ! D16   D(3,2,11,15)         -179.9942         estimate D2E/DX2                !
 ! D17   D(2,3,4,5)              0.021          estimate D2E/DX2                !
 ! D18   D(2,3,4,8)           -179.9813         estimate D2E/DX2                !
 ! D19   D(14,3,4,5)          -179.9714         estimate D2E/DX2                !
 ! D20   D(14,3,4,8)             0.0263         estimate D2E/DX2                !
 ! D21   D(2,3,14,13)           -0.0083         estimate D2E/DX2                !
 ! D22   D(2,3,14,16)         -179.9945         estimate D2E/DX2                !
 ! D23   D(4,3,14,13)          179.984          estimate D2E/DX2                !
 ! D24   D(4,3,14,16)           -0.0021         estimate D2E/DX2                !
 ! D25   D(3,4,5,6)              0.0005         estimate D2E/DX2                !
 ! D26   D(3,4,5,9)            179.9994         estimate D2E/DX2                !
 ! D27   D(8,4,5,6)           -179.9972         estimate D2E/DX2                !
 ! D28   D(8,4,5,9)              0.0017         estimate D2E/DX2                !
 ! D29   D(4,5,6,1)             -0.0113         estimate D2E/DX2                !
 ! D30   D(4,5,6,10)           179.9898         estimate D2E/DX2                !
 ! D31   D(9,5,6,1)            179.9898         estimate D2E/DX2                !
 ! D32   D(9,5,6,10)            -0.009          estimate D2E/DX2                !
 ! D33   D(2,11,12,13)           0.1184         estimate D2E/DX2                !
 ! D34   D(2,11,12,17)        -179.8375         estimate D2E/DX2                !
 ! D35   D(15,11,12,13)       -179.8955         estimate D2E/DX2                !
 ! D36   D(15,11,12,17)          0.1487         estimate D2E/DX2                !
 ! D37   D(11,12,13,14)         -0.1737         estimate D2E/DX2                !
 ! D38   D(11,12,13,20)        179.7834         estimate D2E/DX2                !
 ! D39   D(17,12,13,14)        179.7821         estimate D2E/DX2                !
 ! D40   D(17,12,13,20)         -0.2608         estimate D2E/DX2                !
 ! D41   D(11,12,17,18)        179.9142         estimate D2E/DX2                !
 ! D42   D(11,12,17,21)         -0.0082         estimate D2E/DX2                !
 ! D43   D(13,12,17,18)         -0.0416         estimate D2E/DX2                !
 ! D44   D(13,12,17,21)       -179.9641         estimate D2E/DX2                !
 ! D45   D(12,13,14,3)           0.1187         estimate D2E/DX2                !
 ! D46   D(12,13,14,16)       -179.8952         estimate D2E/DX2                !
 ! D47   D(20,13,14,3)        -179.8384         estimate D2E/DX2                !
 ! D48   D(20,13,14,16)          0.1477         estimate D2E/DX2                !
 ! D49   D(12,13,20,19)         -0.0562         estimate D2E/DX2                !
 ! D50   D(12,13,20,22)       -179.9786         estimate D2E/DX2                !
 ! D51   D(14,13,20,19)        179.9009         estimate D2E/DX2                !
 ! D52   D(14,13,20,22)         -0.0215         estimate D2E/DX2                !
 ! D53   D(12,17,18,19)          0.6587         estimate D2E/DX2                !
 ! D54   D(12,17,18,23)       -179.0798         estimate D2E/DX2                !
 ! D55   D(21,17,18,19)       -179.4189         estimate D2E/DX2                !
 ! D56   D(21,17,18,23)          0.8426         estimate D2E/DX2                !
 ! D57   D(17,18,19,20)         -0.9749         estimate D2E/DX2                !
 ! D58   D(17,18,19,24)        178.8222         estimate D2E/DX2                !
 ! D59   D(23,18,19,20)        178.7623         estimate D2E/DX2                !
 ! D60   D(23,18,19,24)         -1.4406         estimate D2E/DX2                !
 ! D61   D(17,18,23,25)          0.1063         estimate D2E/DX2                !
 ! D62   D(17,18,23,36)        179.6943         estimate D2E/DX2                !
 ! D63   D(19,18,23,25)       -179.6311         estimate D2E/DX2                !
 ! D64   D(19,18,23,36)         -0.0431         estimate D2E/DX2                !
 ! D65   D(18,19,20,13)          0.674          estimate D2E/DX2                !
 ! D66   D(18,19,20,22)       -179.4035         estimate D2E/DX2                !
 ! D67   D(24,19,20,13)       -179.1233         estimate D2E/DX2                !
 ! D68   D(24,19,20,22)          0.7991         estimate D2E/DX2                !
 ! D69   D(18,19,24,26)        179.7019         estimate D2E/DX2                !
 ! D70   D(18,19,24,35)         -0.7065         estimate D2E/DX2                !
 ! D71   D(20,19,24,26)         -0.5009         estimate D2E/DX2                !
 ! D72   D(20,19,24,35)        179.0906         estimate D2E/DX2                !
 ! D73   D(18,23,36,27)       -174.8879         estimate D2E/DX2                !
 ! D74   D(18,23,36,35)          3.6063         estimate D2E/DX2                !
 ! D75   D(25,23,36,27)          4.7001         estimate D2E/DX2                !
 ! D76   D(25,23,36,35)       -176.8057         estimate D2E/DX2                !
 ! D77   D(19,24,35,30)       -176.9498         estimate D2E/DX2                !
 ! D78   D(19,24,35,36)          4.3419         estimate D2E/DX2                !
 ! D79   D(26,24,35,30)          2.6418         estimate D2E/DX2                !
 ! D80   D(26,24,35,36)       -176.0665         estimate D2E/DX2                !
 ! D81   D(31,27,28,29)       -148.2165         estimate D2E/DX2                !
 ! D82   D(31,27,28,32)         91.7786         estimate D2E/DX2                !
 ! D83   D(31,27,28,38)        -29.0765         estimate D2E/DX2                !
 ! D84   D(36,27,28,29)         31.7991         estimate D2E/DX2                !
 ! D85   D(36,27,28,32)        -88.2058         estimate D2E/DX2                !
 ! D86   D(36,27,28,38)        150.9392         estimate D2E/DX2                !
 ! D87   D(28,27,36,23)       -178.6767         estimate D2E/DX2                !
 ! D88   D(28,27,36,35)          2.8499         estimate D2E/DX2                !
 ! D89   D(31,27,36,23)          1.3389         estimate D2E/DX2                !
 ! D90   D(31,27,36,35)       -177.1345         estimate D2E/DX2                !
 ! D91   D(27,28,29,30)        -60.4924         estimate D2E/DX2                !
 ! D92   D(27,28,29,33)        177.8397         estimate D2E/DX2                !
 ! D93   D(27,28,29,37)         57.447          estimate D2E/DX2                !
 ! D94   D(32,28,29,30)         59.5575         estimate D2E/DX2                !
 ! D95   D(32,28,29,33)        -62.1104         estimate D2E/DX2                !
 ! D96   D(32,28,29,37)        177.497          estimate D2E/DX2                !
 ! D97   D(38,28,29,30)       -179.6016         estimate D2E/DX2                !
 ! D98   D(38,28,29,33)         58.7306         estimate D2E/DX2                !
 ! D99   D(38,28,29,37)        -61.6621         estimate D2E/DX2                !
 ! D100  D(28,29,30,34)       -115.4879         estimate D2E/DX2                !
 ! D101  D(28,29,30,35)         63.7381         estimate D2E/DX2                !
 ! D102  D(33,29,30,34)          7.8133         estimate D2E/DX2                !
 ! D103  D(33,29,30,35)       -172.9607         estimate D2E/DX2                !
 ! D104  D(37,29,30,34)        128.3113         estimate D2E/DX2                !
 ! D105  D(37,29,30,35)        -52.4627         estimate D2E/DX2                !
 ! D106  D(29,30,35,24)        153.8269         estimate D2E/DX2                !
 ! D107  D(29,30,35,36)        -27.4225         estimate D2E/DX2                !
 ! D108  D(34,30,35,24)        -26.9462         estimate D2E/DX2                !
 ! D109  D(34,30,35,36)        151.8044         estimate D2E/DX2                !
 ! D110  D(24,35,36,23)         -5.8007         estimate D2E/DX2                !
 ! D111  D(24,35,36,27)        172.6853         estimate D2E/DX2                !
 ! D112  D(30,35,36,23)        175.4314         estimate D2E/DX2                !
 ! D113  D(30,35,36,27)         -6.0827         estimate D2E/DX2                !
 --------------------------------------------------------------------------------
 Trust Radius=3.00D-01 FncErr=1.00D-07 GrdErr=1.00D-06
 Number of steps in this run=    228 maximum allowed number of steps=    228.
 GradGradGradGradGradGradGradGradGradGradGradGradGradGradGradGradGradGrad

                          Input orientation:                          
 ---------------------------------------------------------------------
 Center     Atomic      Atomic             Coordinates (Angstroms)
 Number     Number       Type             X           Y           Z
 ---------------------------------------------------------------------
      1          6           0        0.303169    2.137872    1.605817
      2          6           0        1.625481    1.834953    1.254171
      3          6           0        2.307056    2.639785    0.331404
      4          6           0        1.666136    3.747187   -0.240264
      5          6           0        0.343750    4.049993    0.111198
      6          6           0       -0.337697    3.245400    1.034333
      7          1           0       -0.217140    1.523517    2.310619
      8          1           0        2.186460    4.361532   -0.945064
      9          1           0       -0.145611    4.895523   -0.325272
     10          1           0       -1.347314    3.476686    1.302811
     11          6           0        2.266152    0.727092    1.825187
     12          6           0        3.588377    0.423871    1.473367
     13          6           0        4.270713    1.230103    0.552312
     14          6           0        3.629615    2.337309   -0.019579
     15          1           0        1.745675    0.112533    2.529688
     16          1           0        4.150056    2.951889   -0.724087
     17          6           0        4.227326   -0.686184    2.042230
     18          6           0        5.548981   -0.991909    1.690155
     19          6           0        6.236842   -0.175727    0.776546
     20          6           0        5.594338    0.930016    0.203595
     21          1           0        3.705302   -1.301477    2.744944
     22          1           0        6.115011    1.546087   -0.499438
     23          6           0        6.177899   -2.116571    2.248531
     24          6           0        7.567084   -0.463470    0.440255
     25          1           0        5.647968   -2.738507    2.939378
     26          1           0        8.092015    0.153494   -0.258818
     27          6           0        8.104027   -3.632473    2.374674
     28          6           0        9.576053   -3.962418    2.006094
     29          6           0       10.257157   -2.620558    1.890377
     30          6           0        9.539342   -1.854440    0.785033
     31          1           0        7.542986   -4.305774    2.988514
     32          1           0        9.630151   -4.500924    1.083064
     33          1           0       11.301868   -2.698723    1.672731
     34          1           0       10.026254   -1.574750   -0.125785
     35          6           0        8.205246   -1.557957    1.032033
     36          6           0        7.496658   -2.428332    1.893653
     37          1           0       10.130516   -2.116841    2.825862
     38          1           0       10.032175   -4.549798    2.775403
 ---------------------------------------------------------------------
                    Distance matrix (angstroms):
                    1          2          3          4          5
     1  C    0.000000
     2  C    1.401401   0.000000
     3  C    2.427263   1.401356   0.000000
     4  C    2.802782   2.427268   1.401400   0.000000
     5  C    2.427291   2.802789   2.427292   1.401399   0.000000
     6  C    1.401400   2.427295   2.802784   2.427289   1.401399
     7  H    1.070000   2.146701   3.396308   3.872782   3.396341
     8  H    3.872782   3.396312   2.146702   1.070000   2.146701
     9  H    3.396342   3.872789   3.396343   2.146701   1.070000
    10  H    2.146701   3.396345   3.872783   3.396341   2.146701
    11  C    2.427288   1.401383   2.427232   3.707705   4.204171
    12  C    3.707821   2.427377   2.802880   4.204280   5.052907
    13  C    4.204203   2.802803   2.427335   3.707791   4.854626
    14  C    3.707685   2.427211   1.401372   2.427284   3.707734
    15  H    2.652614   2.146653   3.396263   4.570522   4.828879
    16  H    4.570516   3.396253   2.146654   2.652630   4.048641
    17  C    4.854355   3.707663   4.204335   5.605734   6.422026
    18  C    6.109107   4.855418   5.054254   6.423553   7.416759
    19  C    6.422532   5.053277   4.854738   6.108561   7.282028
    20  C    5.605498   4.204099   3.707542   4.854301   6.108311
    21  H    4.970035   4.047870   4.828438   6.209563   6.846523
    22  H    6.209655   4.828506   4.048086   4.970363   6.320591
    23  C    7.281883   6.109648   6.425085   7.806008   8.753970
    24  C    7.803203   6.422449   6.108186   7.281067   8.523859
    25  H    7.356924   6.319562   6.847572   8.247990   9.067362
    26  H    8.251106   6.850731   6.324221   7.362534   8.680739
    27  C    9.733521   8.551014   8.781860  10.136259  11.151929
    28  C   11.106761   9.868459   9.961526  11.271687  12.370318
    29  C   11.036554   9.734587   9.659489  10.903828  12.080454
    30  C   10.095501   8.744192   8.527004   9.716832  10.948757
    31  H    9.790168   8.702490   9.094833  10.479149  11.398543
    32  H   11.460345  10.210160  10.255850  11.541581  12.660962
    33  H   12.015345  10.694011  10.545401  11.749751  12.963946
    34  H   10.550849   9.170788   8.806666   9.910989  11.200214
    35  C    8.742494   7.406382   7.273278   8.516059   9.700523
    36  C    8.525219   7.283904   7.420135   8.757033   9.813763
    37  H   10.778119   9.509075   9.489697  10.744007  11.881920
    38  H   11.863660  10.665444  10.832392  12.162435  13.225731
                    6          7          8          9         10
     6  C    0.000000
     7  H    2.146701   0.000000
     8  H    3.396341   4.942782   0.000000
     9  H    2.146701   4.280591   2.471405   0.000000
    10  H    1.070000   2.471404   4.280591   2.471405   0.000000
    11  C    3.707742   2.652673   4.570535   5.274171   4.570588
    12  C    4.854672   4.048725   4.829012   6.097002   5.806015
    13  C    5.052842   4.828930   4.048715   5.805977   6.096935
    14  C    4.204155   4.570514   2.652678   4.570583   5.274155
    15  H    4.048627   2.427243   5.506558   5.882580   4.731736
    16  H    4.828884   5.506550   2.427269   4.731757   5.882585
    17  C    6.108408   4.970723   6.210354   7.475500   6.996631
    18  C    7.282711   6.321432   6.849106   8.435175   8.226619
    19  C    7.415870   6.847971   6.321096   8.226012   8.434246
    20  C    6.421851   6.210078   4.970750   6.996567   7.475315
    21  H    6.320295   4.853327   6.927677   7.915716   7.102078
    22  H    6.846719   6.927703   4.853744   7.102425   7.915909
    23  C    8.525139   7.358710   8.252057   9.786761   9.423785
    24  C    8.751812   8.248668   7.358727   9.422871   9.784443
    25  H    8.675513   7.277340   8.802356  10.124322   9.499523
    26  H    9.071504   8.804603   7.283825   9.505248  10.128338
    27  C   10.971070   9.789288  10.485342  12.168523  11.875053
    28  C   12.295503  11.229196  11.515362  13.356988  13.234607
    29  C   12.140561  11.272128  11.041987  13.023754  13.121943
    30  C   11.118742  10.436807   9.782454  11.857195  12.132941
    31  H   11.088022   9.729323  10.921886  12.440239  11.935062
    32  H   12.624022  11.609045  11.750106  13.632394  13.571857
    33  H   13.085092  12.285022  11.823313  13.881980  14.080992
    34  H   11.488743  10.975539   9.867778  12.056993  12.526610
    35  C    9.800721   9.059076   8.670355  10.640793  10.801498
    36  C    9.711169   8.677192   9.075174  10.815117  10.650548
    37  H   11.897340  10.981424  10.922327  12.833615  12.858764
    38  H   13.089335  11.922653  12.442224  14.227283  14.003062
                   11         12         13         14         15
    11  C    0.000000
    12  C    1.401428   0.000000
    13  C    2.427241   1.401405   0.000000
    14  C    2.802675   2.427310   1.401417   0.000000
    15  H    1.070000   2.146694   3.396291   3.872675   0.000000
    16  H    3.872675   3.396345   2.146695   1.070000   4.942675
    17  C    2.427069   1.401458   2.427735   3.708076   2.652198
    18  C    3.708122   2.428044   2.804638   4.206049   4.048425
    19  C    4.204892   2.803470   2.427407   3.707668   4.829822
    20  C    3.707770   2.427423   1.401299   2.427018   4.570688
    21  H    2.651830   2.146486   3.396501   4.570457   2.426087
    22  H    4.570378   3.396352   2.146499   2.652073   5.506521
    23  C    4.854627   3.709494   4.208889   5.610269   4.969161
    24  C    5.606725   4.205331   3.707669   4.853810   6.211788
    25  H    4.968751   4.048671   4.831644   6.212333   4.850172
    26  H    6.213918   4.832839   4.052082   4.973862   6.932062
    27  C    7.306746   6.136561   6.454452   7.835248   7.380904
    28  C    8.686708   7.441478   7.564548   8.896631   8.842748
    29  C    8.664132   7.342689   7.242619   8.494275   8.962357
    30  C    7.787524   6.409250   6.109584   7.289927   8.225208
    31  H    7.384312   6.348555   6.876684   8.276089   7.303477
    32  H    9.061534   7.804421   7.864474   9.164262   9.248875
    33  H    9.664555   8.323959   8.131922   9.332149   9.997918
    34  H    8.326102   6.928062   6.438422   7.498832   8.858129
    35  C    6.412752   5.043600   4.846025   6.100442   6.838096
    36  C    6.108976   4.856580   5.058663   6.428516   6.319363
    37  H    8.422442   7.147310   7.120980   8.378407   8.681209
    38  H    9.437140   8.243495   8.458359   9.810043   9.511246
                   16         17         18         19         20
    16  H    0.000000
    17  C    4.571002   0.000000
    18  C    4.831055   1.401498   0.000000
    19  C    4.048278   2.429132   1.404986   0.000000
    20  C    2.652266   2.803819   2.430166   1.401339   0.000000
    21  H    5.506641   1.070000   2.146524   3.398617   3.873818
    22  H    2.426478   3.873818   3.399430   2.146536   1.070000
    23  C    6.215938   2.427612   1.404345   2.436615   3.715373
    24  C    4.969552   3.710783   2.431920   1.401938   2.426837
    25  H    6.931473   2.652381   2.149642   3.404770   4.576619
    26  H    4.856597   4.575555   3.402567   2.149891   2.656164
    27  C    8.281910   4.880569   3.737567   4.241402   5.641669
    28  C    9.203421   6.272471   5.014085   5.196263   6.560409
    29  C    8.670887   6.334329   4.985931   4.835365   6.098664
    30  C    7.377170   5.582372   4.181648   3.704680   4.863571
    31  H    8.830008   4.999048   4.079644   4.863754   6.242315
    32  H    9.425585   6.683021   5.416429   5.505982   6.823223
    33  H    9.424573   7.364509   6.000769   5.729149   6.921128
    34  H    7.441648   6.254391   4.866551   4.138975   5.101395
    35  C    6.314050   4.195752   2.794508   2.418770   3.700427
    36  C    6.855588   3.707518   2.428615   2.812347   4.213504
    37  H    8.605816   6.124419   4.852397   4.809191   6.061067
    38  H   10.154854   7.011514   5.825407   6.126376   7.505795
                   21         22         23         24         25
    21  H    0.000000
    22  H    4.943817   0.000000
    23  C    2.650384   4.579339   0.000000
    24  C    4.574627   2.651388   2.816459   0.000000
    25  H    2.424213   5.513740   1.070000   3.886440   0.000000
    26  H    5.512058   2.430177   3.886366   1.070000   4.956359
    27  C    4.991936   6.247735   2.454352   3.751383   2.674003
    28  C    6.487852   6.971379   3.874710   4.327869   4.218866
    29  C    6.737734   6.342675   4.125849   3.740639   4.728524
    30  C    6.179242   4.993945   3.675573   2.437923   4.534927
    31  H    4.879851   6.960546   2.683961   4.610587   2.459641
    32  H    6.935571   7.171253   4.354481   4.579355   4.733899
    33  H    7.798061   7.045581   5.188980   4.523712   5.794183
    34  H    6.947676   5.017675   4.554206   2.757329   5.469821
    35  C    4.821757   4.043461   2.429414   1.398340   3.401666
    36  C    4.045847   4.840644   1.400807   2.444997   2.146487
    37  H    6.477248   6.371730   3.994558   3.872459   4.526874
    38  H    7.112091   7.951639   4.588424   5.312972   4.746466
                   26         27         28         29         30
    26  H    0.000000
    27  C    4.611830   0.000000
    28  C    4.926756   1.552924   0.000000
    29  C    4.123378   2.427856   1.509265   0.000000
    30  C    2.686294   2.783611   2.436372   1.524462   0.000000
    31  H    5.543615   1.070000   2.283945   3.378251   3.853544
    32  H    5.082334   2.179798   1.070000   2.140250   2.664760
    33  H    4.708416   3.404526   2.164831   1.070000   2.146467
    34  H    2.597269   3.765830   3.232421   2.282968   1.070000
    35  C    2.146668   2.473166   2.934167   2.464998   1.388785
    36  C    3.413709   1.431864   2.586493   2.767186   2.393939
    37  H    4.338797   2.570480   2.094183   1.070000   2.140870
    38  H    5.923823   2.172515   1.070000   2.134444   3.386652
                   31         32         33         34         35
    31  H    0.000000
    32  H    2.832858   0.000000
    33  H    4.294542   2.527899   0.000000
    34  H    4.829490   3.190722   2.474907   0.000000
    35  C    3.437572   3.270171   3.361683   2.157985   0.000000
    36  C    2.173857   3.082935   3.821196   3.347475   1.414934
    37  H    3.393109   2.995257   1.743664   3.002824   2.690137
    38  H    2.510185   1.740122   2.500896   4.155459   3.915114
                   36         37         38
    36  C    0.000000
    37  H    2.811271   0.000000
    38  H    3.421542   2.435466   0.000000
 Stoichiometry    C22H16
 Framework group  C1[X(C22H16)]
 Deg. of freedom   108
 Full point group                 C1      NOp   1
 Largest Abelian subgroup         C1      NOp   1
 Largest concise Abelian subgroup C1      NOp   1
                         Standard orientation:                         
 ---------------------------------------------------------------------
 Center     Atomic      Atomic             Coordinates (Angstroms)
 Number     Number       Type             X           Y           Z
 ---------------------------------------------------------------------
      1          6           0        4.933200    1.413288    0.085948
      2          6           0        3.723639    0.706916    0.042061
      3          6           0        3.731586   -0.693233   -0.015542
      4          6           0        4.949096   -1.387052   -0.029933
      5          6           0        6.158669   -0.680691    0.013726
      6          6           0        6.150719    0.719482    0.071786
      7          1           0        4.927122    2.482354    0.130233
      8          1           0        4.955154   -2.456118   -0.074218
      9          1           0        7.088269   -1.210430    0.002748
     10          1           0        7.074248    1.258808    0.105285
     11          6           0        2.506134    1.400724    0.055617
     12          6           0        1.296488    0.694466    0.011402
     13          6           0        1.304449   -0.705826   -0.043868
     14          6           0        2.522013   -1.399578   -0.058594
     15          1           0        2.500106    2.469807    0.099506
     16          1           0        2.528082   -2.468660   -0.102488
     17          6           0        0.079332    1.389098    0.021549
     18          6           0       -1.131271    0.684454   -0.024436
     19          6           0       -1.122809   -0.719870   -0.066727
     20          6           0        0.095158   -1.412708   -0.083513
     21          1           0        0.074318    2.458276    0.063182
     22          1           0        0.101748   -2.481869   -0.125362
     23          6           0       -2.347652    1.386253   -0.033576
     24          6           0       -2.331616   -1.429638   -0.087877
     25          1           0       -2.348872    2.455927   -0.007203
     26          1           0       -2.328368   -2.498992   -0.124890
     27          6           0       -4.795933    1.396332   -0.205814
     28          6           0       -6.140605    0.619998   -0.232928
     29          6           0       -5.905576   -0.593445    0.633213
     30          6           0       -4.767708   -1.380060   -0.007472
     31          1           0       -4.793657    2.463958   -0.277009
     32          1           0       -6.399999    0.334474   -1.230971
     33          1           0       -6.774374   -1.209633    0.735206
     34          1           0       -4.906525   -2.362429   -0.408196
     35          6           0       -3.541512   -0.729505   -0.051555
     36          6           0       -3.559106    0.684901   -0.085975
     37          1           0       -5.608799   -0.242887    1.599615
     38          1           0       -6.928617    1.221580    0.169611
 ---------------------------------------------------------------------
 Rotational constants (GHZ):      1.3232838      0.1173789      0.1083540
 Standard basis: CC-pVDZ (5D, 7F)
 There are   410 symmetry adapted cartesian basis functions of A   symmetry.
 There are   388 symmetry adapted basis functions of A   symmetry.
   388 basis functions,   838 primitive gaussians,   410 cartesian basis functions
    74 alpha electrons       74 beta electrons
       nuclear repulsion energy      1538.1823698763 Hartrees.
 NAtoms=   38 NActive=   38 NUniq=   38 SFac= 1.00D+00 NAtFMM=   60 NAOKFM=F Big=F
 Integral buffers will be    131072 words long.
 Raffenetti 2 integral format.
 Two-electron integral symmetry is turned on.
 One-electron integrals computed using PRISM.
 NBasis=   388 RedAO= T EigKep=  8.86D-05  NBF=   388
 NBsUse=   388 1.00D-06 EigRej= -1.00D+00 NBFU=   388
 ExpMin= 1.22D-01 ExpMax= 6.67D+03 ExpMxC= 2.28D+02 IAcc=1 IRadAn=         1 AccDes= 0.00D+00
 Harris functional with IExCor= 1009 and IRadAn=       1 diagonalized for initial guess.
 HarFok:  IExCor= 1009 AccDes= 0.00D+00 IRadAn=         1 IDoV= 1 UseB2=F ITyADJ=14
 ICtDFT=  3500011 ScaDFX=  1.000000  1.000000  1.000000  1.000000
 FoFCou: FMM=F IPFlag=           0 FMFlag=      100000 FMFlg1=           0
         NFxFlg=           0 DoJE=T BraDBF=F KetDBF=T FulRan=T
         wScrn=  0.000000 ICntrl=     500 IOpCl=  0 I1Cent=   200000004 NGrid=           0
         NMat0=    1 NMatS0=      1 NMatT0=    0 NMatD0=    1 NMtDS0=    0 NMtDT0=    0
 Petite list used in FoFCou.
 Requested convergence on RMS density matrix=1.00D-08 within 128 cycles.
 Requested convergence on MAX density matrix=1.00D-06.
 Requested convergence on             energy=1.00D-06.
 No special actions if energy rises.
 Integral accuracy reduced to 1.0D-05 until final iterations.
 Initial convergence to 1.0D-05 achieved.  Increase integral accuracy.
 SCF Done:  E(RM06) =  -847.239459444     A.U. after   23 cycles
            NFock= 23  Conv=0.73D-08     -V/T= 2.0056

 **********************************************************************

            Population analysis using the SCF density.

 **********************************************************************

 Orbital symmetries:
       Occupied  (A) (A) (A) (A) (A) (A) (A) (A) (A) (A) (A) (A)
                 (A) (A) (A) (A) (A) (A) (A) (A) (A) (A) (A) (A)
                 (A) (A) (A) (A) (A) (A) (A) (A) (A) (A) (A) (A)
                 (A) (A) (A) (A) (A) (A) (A) (A) (A) (A) (A) (A)
                 (A) (A) (A) (A) (A) (A) (A) (A) (A) (A) (A) (A)
                 (A) (A) (A) (A) (A) (A) (A) (A) (A) (A) (A) (A)
                 (A) (A)
       Virtual   (A) (A) (A) (A) (A) (A) (A) (A) (A) (A) (A) (A)
                 (A) (A) (A) (A) (A) (A) (A) (A) (A) (A) (A) (A)
                 (A) (A) (A) (A) (A) (A) (A) (A) (A) (A) (A) (A)
                 (A) (A) (A) (A) (A) (A) (A) (A) (A) (A) (A) (A)
                 (A) (A) (A) (A) (A) (A) (A) (A) (A) (A) (A) (A)
                 (A) (A) (A) (A) (A) (A) (A) (A) (A) (A) (A) (A)
                 (A) (A) (A) (A) (A) (A) (A) (A) (A) (A) (A) (A)
                 (A) (A) (A) (A) (A) (A) (A) (A) (A) (A) (A) (A)
                 (A) (A) (A) (A) (A) (A) (A) (A) (A) (A) (A) (A)
                 (A) (A) (A) (A) (A) (A) (A) (A) (A) (A) (A) (A)
                 (A) (A) (A) (A) (A) (A) (A) (A) (A) (A) (A) (A)
                 (A) (A) (A) (A) (A) (A) (A) (A) (A) (A) (A) (A)
                 (A) (A) (A) (A) (A) (A) (A) (A) (A) (A) (A) (A)
                 (A) (A) (A) (A) (A) (A) (A) (A) (A) (A) (A) (A)
                 (A) (A) (A) (A) (A) (A) (A) (A) (A) (A) (A) (A)
                 (A) (A) (A) (A) (A) (A) (A) (A) (A) (A) (A) (A)
                 (A) (A) (A) (A) (A) (A) (A) (A) (A) (A) (A) (A)
                 (A) (A) (A) (A) (A) (A) (A) (A) (A) (A) (A) (A)
                 (A) (A) (A) (A) (A) (A) (A) (A) (A) (A) (A) (A)
                 (A) (A) (A) (A) (A) (A) (A) (A) (A) (A) (A) (A)
                 (A) (A) (A) (A) (A) (A) (A) (A) (A) (A) (A) (A)
                 (A) (A) (A) (A) (A) (A) (A) (A) (A) (A) (A) (A)
                 (A) (A) (A) (A) (A) (A) (A) (A) (A) (A) (A) (A)
                 (A) (A) (A) (A) (A) (A) (A) (A) (A) (A) (A) (A)
                 (A) (A) (A) (A) (A) (A) (A) (A) (A) (A) (A) (A)
                 (A) (A) (A) (A) (A) (A) (A) (A) (A) (A) (A) (A)
                 (A) (A)
 The electronic state is 1-A.
 Alpha  occ. eigenvalues --  -10.26240 -10.26201 -10.25988 -10.25975 -10.25965
 Alpha  occ. eigenvalues --  -10.25943 -10.25930 -10.25919 -10.25718 -10.25665
 Alpha  occ. eigenvalues --  -10.25621 -10.25578 -10.25496 -10.25496 -10.25438
 Alpha  occ. eigenvalues --  -10.25362 -10.25358 -10.25298 -10.25292 -10.25290
 Alpha  occ. eigenvalues --  -10.25217 -10.24805  -0.91035  -0.89281  -0.86657
 Alpha  occ. eigenvalues --   -0.83364  -0.80658  -0.79537  -0.78880  -0.76193
 Alpha  occ. eigenvalues --   -0.75932  -0.72660  -0.69044  -0.68661  -0.63490
 Alpha  occ. eigenvalues --   -0.63239  -0.62704  -0.61350  -0.60155  -0.59278
 Alpha  occ. eigenvalues --   -0.54263  -0.53383  -0.52885  -0.50071  -0.49530
 Alpha  occ. eigenvalues --   -0.48005  -0.46872  -0.46577  -0.46240  -0.45193
 Alpha  occ. eigenvalues --   -0.43228  -0.43175  -0.42816  -0.42532  -0.42345
 Alpha  occ. eigenvalues --   -0.42025  -0.40452  -0.40119  -0.39239  -0.38858
 Alpha  occ. eigenvalues --   -0.38414  -0.36492  -0.36049  -0.35065  -0.34829
 Alpha  occ. eigenvalues --   -0.34172  -0.32873  -0.31940  -0.30991  -0.29355
 Alpha  occ. eigenvalues --   -0.26441  -0.25452  -0.20492  -0.15329
 Alpha virt. eigenvalues --   -0.11150  -0.05804  -0.00679   0.00430   0.02532
 Alpha virt. eigenvalues --    0.03698   0.06282   0.07859   0.07867   0.08532
 Alpha virt. eigenvalues --    0.09261   0.09600   0.10454   0.11030   0.11472
 Alpha virt. eigenvalues --    0.12478   0.12974   0.13186   0.14065   0.14369
 Alpha virt. eigenvalues --    0.15362   0.15994   0.16572   0.18892   0.19991
 Alpha virt. eigenvalues --    0.20299   0.21580   0.22140   0.22382   0.24059
 Alpha virt. eigenvalues --    0.26204   0.26412   0.26946   0.28965   0.29366
 Alpha virt. eigenvalues --    0.30190   0.30982   0.31569   0.32230   0.33167
 Alpha virt. eigenvalues --    0.33897   0.36067   0.36316   0.37269   0.42210
 Alpha virt. eigenvalues --    0.42281   0.42450   0.43275   0.43877   0.44056
 Alpha virt. eigenvalues --    0.45223   0.45421   0.45651   0.46039   0.47025
 Alpha virt. eigenvalues --    0.47241   0.47548   0.47582   0.48163   0.48555
 Alpha virt. eigenvalues --    0.49602   0.49671   0.49812   0.50458   0.50909
 Alpha virt. eigenvalues --    0.51100   0.51874   0.52361   0.52794   0.52917
 Alpha virt. eigenvalues --    0.53185   0.53753   0.53864   0.54511   0.54696
 Alpha virt. eigenvalues --    0.54975   0.55209   0.55405   0.56366   0.56675
 Alpha virt. eigenvalues --    0.56905   0.58310   0.60064   0.60444   0.60880
 Alpha virt. eigenvalues --    0.61056   0.62234   0.62632   0.63631   0.64289
 Alpha virt. eigenvalues --    0.64632   0.64719   0.65111   0.65314   0.66226
 Alpha virt. eigenvalues --    0.66420   0.66960   0.67748   0.68175   0.68732
 Alpha virt. eigenvalues --    0.69566   0.69899   0.70978   0.71656   0.72144
 Alpha virt. eigenvalues --    0.73775   0.74380   0.74556   0.75200   0.76464
 Alpha virt. eigenvalues --    0.77459   0.79971   0.81765   0.82420   0.83102
 Alpha virt. eigenvalues --    0.84485   0.86233   0.86568   0.88115   0.88860
 Alpha virt. eigenvalues --    0.89635   0.90570   0.91425   0.91619   0.92535
 Alpha virt. eigenvalues --    0.93122   0.93149   0.94387   0.94666   0.95424
 Alpha virt. eigenvalues --    0.95930   0.96350   0.97738   0.97932   0.98452
 Alpha virt. eigenvalues --    0.98777   0.99874   1.00357   1.01946   1.02189
 Alpha virt. eigenvalues --    1.03302   1.04309   1.04758   1.05518   1.06515
 Alpha virt. eigenvalues --    1.07257   1.08383   1.08471   1.08931   1.09596
 Alpha virt. eigenvalues --    1.10209   1.10443   1.13946   1.16501   1.18482
 Alpha virt. eigenvalues --    1.19674   1.21883   1.23415   1.23736   1.25543
 Alpha virt. eigenvalues --    1.28468   1.29269   1.30172   1.34279   1.35198
 Alpha virt. eigenvalues --    1.36620   1.37159   1.39523   1.39586   1.39934
 Alpha virt. eigenvalues --    1.41079   1.41179   1.41913   1.42132   1.42628
 Alpha virt. eigenvalues --    1.43323   1.44004   1.44543   1.45746   1.46492
 Alpha virt. eigenvalues --    1.47082   1.47352   1.48160   1.49476   1.50102
 Alpha virt. eigenvalues --    1.50505   1.50648   1.52200   1.53420   1.54879
 Alpha virt. eigenvalues --    1.55763   1.56045   1.56957   1.58167   1.59154
 Alpha virt. eigenvalues --    1.60536   1.60996   1.61349   1.61680   1.62468
 Alpha virt. eigenvalues --    1.63439   1.64041   1.64153   1.65155   1.65427
 Alpha virt. eigenvalues --    1.66217   1.66856   1.67250   1.68222   1.68519
 Alpha virt. eigenvalues --    1.69344   1.69565   1.70022   1.70691   1.70931
 Alpha virt. eigenvalues --    1.72435   1.72817   1.73348   1.74337   1.75054
 Alpha virt. eigenvalues --    1.75626   1.75887   1.76291   1.77146   1.78574
 Alpha virt. eigenvalues --    1.78891   1.79336   1.79791   1.81034   1.82090
 Alpha virt. eigenvalues --    1.82882   1.83005   1.83801   1.84235   1.85006
 Alpha virt. eigenvalues --    1.85568   1.86493   1.87534   1.89089   1.90308
 Alpha virt. eigenvalues --    1.90944   1.92310   1.93649   1.94949   1.96030
 Alpha virt. eigenvalues --    1.96250   1.96629   1.97748   1.99851   2.00261
 Alpha virt. eigenvalues --    2.01250   2.01991   2.03079   2.04172   2.04681
 Alpha virt. eigenvalues --    2.05488   2.06573   2.08320   2.09040   2.10364
 Alpha virt. eigenvalues --    2.11275   2.15287   2.16306   2.19160   2.20928
 Alpha virt. eigenvalues --    2.21249   2.22165   2.22288   2.23638   2.24772
 Alpha virt. eigenvalues --    2.25153   2.26096   2.26416   2.26508   2.27567
 Alpha virt. eigenvalues --    2.28068   2.29086   2.33160   2.34560   2.36096
 Alpha virt. eigenvalues --    2.37820   2.38789   2.38883   2.39259   2.45913
 Alpha virt. eigenvalues --    2.46132   2.49100   2.50043   2.50359   2.55878
 Alpha virt. eigenvalues --    2.58602   2.59795   2.60919   2.61044   2.62385
 Alpha virt. eigenvalues --    2.64828   2.64974   2.67347   2.68253   2.73523
 Alpha virt. eigenvalues --    2.73904   2.74571   2.78937   2.82285   2.83212
 Alpha virt. eigenvalues --    2.88125   2.88975   2.93856   2.97816   3.02292
 Alpha virt. eigenvalues --    3.29610   3.40611   3.47766   3.51126
          Condensed to atoms (all electrons):
               1          2          3          4          5          6
     1  C    4.964707   0.432205  -0.038191  -0.095931   0.009825   0.486112
     2  C    0.432205   4.952108   0.334732  -0.038162  -0.069342   0.023908
     3  C   -0.038191   0.334732   4.952301   0.432469   0.023858  -0.069350
     4  C   -0.095931  -0.038162   0.432469   4.964541   0.486063   0.009844
     5  C    0.009825  -0.069342   0.023858   0.486063   4.805242   0.428407
     6  C    0.486112   0.023908  -0.069350   0.009844   0.428407   4.805042
     7  H    0.394177  -0.036720   0.013461  -0.000461   0.009488  -0.055019
     8  H   -0.000461   0.013459  -0.036732   0.394177  -0.055009   0.009489
     9  H    0.008931   0.001000   0.007982  -0.038768   0.390485  -0.051531
    10  H   -0.038781   0.007981   0.001000   0.008931  -0.051526   0.390485
    11  C   -0.127057   0.411838  -0.050359   0.019570  -0.001190   0.011159
    12  C    0.009543   0.028181  -0.042772   0.000529   0.000117  -0.000941
    13  C    0.000521  -0.042718   0.028223   0.009520  -0.000941   0.000118
    14  C    0.019587  -0.050420   0.411389  -0.127055   0.011167  -0.001191
    15  H   -0.019928  -0.039995   0.011945  -0.000204  -0.000045   0.000889
    16  H   -0.000204   0.011952  -0.039971  -0.019936   0.000889  -0.000045
    17  C   -0.000648   0.009854   0.000609   0.000045   0.000001   0.000007
    18  C    0.000006  -0.000965   0.000038   0.000001   0.000000   0.000000
    19  C    0.000001   0.000035  -0.000970   0.000006   0.000000   0.000000
    20  C    0.000044   0.000603   0.009861  -0.000649   0.000007   0.000001
    21  H    0.000003   0.001695  -0.000031  -0.000001   0.000000  -0.000001
    22  H   -0.000001  -0.000030   0.001686   0.000004  -0.000001   0.000000
    23  C    0.000000   0.000006   0.000001   0.000000   0.000000   0.000000
    24  C    0.000000   0.000001   0.000006   0.000000   0.000000   0.000000
    25  H    0.000000  -0.000001   0.000000   0.000000   0.000000   0.000000
    26  H    0.000000   0.000000  -0.000001   0.000000   0.000000   0.000000
    27  C    0.000000   0.000000   0.000000   0.000000   0.000000   0.000000
    28  C    0.000000   0.000000   0.000000   0.000000   0.000000   0.000000
    29  C    0.000000   0.000000   0.000000   0.000000   0.000000   0.000000
    30  C    0.000000   0.000000   0.000000   0.000000   0.000000   0.000000
    31  H    0.000000   0.000000   0.000000   0.000000   0.000000   0.000000
    32  H    0.000000   0.000000   0.000000   0.000000   0.000000   0.000000
    33  H    0.000000   0.000000   0.000000   0.000000   0.000000   0.000000
    34  H    0.000000   0.000000   0.000000   0.000000   0.000000   0.000000
    35  C    0.000000   0.000000   0.000000   0.000000   0.000000   0.000000
    36  C    0.000000   0.000000   0.000000   0.000000   0.000000   0.000000
    37  H    0.000000   0.000000   0.000000   0.000000   0.000000   0.000000
    38  H    0.000000   0.000000   0.000000   0.000000   0.000000   0.000000
               7          8          9         10         11         12
     1  C    0.394177  -0.000461   0.008931  -0.038781  -0.127057   0.009543
     2  C   -0.036720   0.013459   0.001000   0.007981   0.411838   0.028181
     3  C    0.013461  -0.036732   0.007982   0.001000  -0.050359  -0.042772
     4  C   -0.000461   0.394177  -0.038768   0.008931   0.019570   0.000529
     5  C    0.009488  -0.055009   0.390485  -0.051526  -0.001190   0.000117
     6  C   -0.055019   0.009489  -0.051531   0.390485   0.011159  -0.000941
     7  H    0.732744   0.000065  -0.000297  -0.014403  -0.023882   0.002068
     8  H    0.000065   0.732758  -0.014406  -0.000297  -0.000141  -0.000070
     9  H   -0.000297  -0.014406   0.719043  -0.015312   0.000058  -0.000002
    10  H   -0.014403  -0.000297  -0.015312   0.719046  -0.000459   0.000012
    11  C   -0.023882  -0.000141   0.000058  -0.000459   5.324104   0.374068
    12  C    0.002068  -0.000070  -0.000002   0.000012   0.374068   4.956033
    13  C   -0.000069   0.002067   0.000012  -0.000002  -0.041157   0.344599
    14  C   -0.000141  -0.023881  -0.000460   0.000058  -0.129019  -0.040696
    15  H    0.001954   0.000011   0.000000  -0.000019   0.382547  -0.033046
    16  H    0.000011   0.001956  -0.000019   0.000000  -0.000255   0.012088
    17  C   -0.000013  -0.000002   0.000000   0.000000  -0.128398   0.398114
    18  C   -0.000001   0.000000   0.000000   0.000000   0.010299   0.029146
    19  C    0.000000  -0.000001   0.000000   0.000000   0.000586  -0.043905
    20  C   -0.000002  -0.000013   0.000000   0.000000   0.019754  -0.041054
    21  H    0.000029   0.000000   0.000000   0.000000  -0.021243  -0.037687
    22  H    0.000000   0.000029   0.000000   0.000000  -0.000245   0.012056
    23  C    0.000000   0.000000   0.000000   0.000000  -0.000671   0.009349
    24  C    0.000000   0.000000   0.000000   0.000000   0.000043   0.000924
    25  H    0.000000   0.000000   0.000000   0.000000   0.000003   0.001794
    26  H    0.000000   0.000000   0.000000   0.000000  -0.000001  -0.000042
    27  C    0.000000   0.000000   0.000000   0.000000   0.000000   0.000008
    28  C    0.000000   0.000000   0.000000   0.000000   0.000000   0.000000
    29  C    0.000000   0.000000   0.000000   0.000000   0.000000   0.000000
    30  C    0.000000   0.000000   0.000000   0.000000   0.000000   0.000000
    31  H    0.000000   0.000000   0.000000   0.000000   0.000000  -0.000001
    32  H    0.000000   0.000000   0.000000   0.000000   0.000000   0.000000
    33  H    0.000000   0.000000   0.000000   0.000000   0.000000   0.000000
    34  H    0.000000   0.000000   0.000000   0.000000   0.000000   0.000000
    35  C    0.000000   0.000000   0.000000   0.000000   0.000002   0.000027
    36  C    0.000000   0.000000   0.000000   0.000000   0.000004  -0.000995
    37  H    0.000000   0.000000   0.000000   0.000000   0.000000   0.000000
    38  H    0.000000   0.000000   0.000000   0.000000   0.000000   0.000000
              13         14         15         16         17         18
     1  C    0.000521   0.019587  -0.019928  -0.000204  -0.000648   0.000006
     2  C   -0.042718  -0.050420  -0.039995   0.011952   0.009854  -0.000965
     3  C    0.028223   0.411389   0.011945  -0.039971   0.000609   0.000038
     4  C    0.009520  -0.127055  -0.000204  -0.019936   0.000045   0.000001
     5  C   -0.000941   0.011167  -0.000045   0.000889   0.000001   0.000000
     6  C    0.000118  -0.001191   0.000889  -0.000045   0.000007   0.000000
     7  H   -0.000069  -0.000141   0.001954   0.000011  -0.000013  -0.000001
     8  H    0.002067  -0.023881   0.000011   0.001956  -0.000002   0.000000
     9  H    0.000012  -0.000460   0.000000  -0.000019   0.000000   0.000000
    10  H   -0.000002   0.000058  -0.000019   0.000000   0.000000   0.000000
    11  C   -0.041157  -0.129019   0.382547  -0.000255  -0.128398   0.010299
    12  C    0.344599  -0.040696  -0.033046   0.012088   0.398114   0.029146
    13  C    4.954602   0.374510   0.012118  -0.033142  -0.041062  -0.043895
    14  C    0.374510   5.323991  -0.000260   0.382527   0.019799   0.000550
    15  H    0.012118  -0.000260   0.735105   0.000065  -0.021830   0.001747
    16  H   -0.033142   0.382527   0.000065   0.735072  -0.000265  -0.000030
    17  C   -0.041062   0.019799  -0.021830  -0.000265   5.326696   0.372794
    18  C   -0.043895   0.000550   0.001747  -0.000030   0.372794   4.953864
    19  C    0.029615   0.010232  -0.000030   0.001747  -0.041299   0.336408
    20  C    0.398569  -0.128702  -0.000262  -0.021740  -0.131012  -0.042444
    21  H    0.012092  -0.000244   0.001335   0.000009   0.385839  -0.038887
    22  H   -0.037684  -0.021191   0.000009   0.001353  -0.000262   0.011876
    23  C    0.000789   0.000043   0.000002  -0.000001  -0.125447   0.436779
    24  C    0.009032  -0.000673  -0.000001   0.000002   0.018671  -0.053505
    25  H   -0.000031  -0.000001   0.000028   0.000000  -0.022206  -0.030453
    26  H    0.001794   0.000008   0.000000   0.000028  -0.000245   0.012332
    27  C    0.000000   0.000000   0.000000   0.000000  -0.000523   0.005611
    28  C    0.000000   0.000000   0.000000   0.000000   0.000004  -0.000609
    29  C    0.000000   0.000000   0.000000   0.000000   0.000000   0.000046
    30  C    0.000011   0.000000   0.000000   0.000000   0.000036   0.001696
    31  H    0.000000   0.000000   0.000000   0.000000   0.000000   0.001471
    32  H    0.000000   0.000000   0.000000   0.000000  -0.000001   0.000021
    33  H    0.000000   0.000000   0.000000   0.000000   0.000000  -0.000005
    34  H    0.000000   0.000000   0.000000   0.000000  -0.000001  -0.000016
    35  C   -0.000968   0.000003   0.000000  -0.000001   0.000270  -0.040514
    36  C    0.000059   0.000002  -0.000001   0.000000   0.011123   0.019626
    37  H    0.000000   0.000000   0.000000   0.000000   0.000000  -0.000107
    38  H    0.000000   0.000000   0.000000   0.000000   0.000000   0.000016
              19         20         21         22         23         24
     1  C    0.000001   0.000044   0.000003  -0.000001   0.000000   0.000000
     2  C    0.000035   0.000603   0.001695  -0.000030   0.000006   0.000001
     3  C   -0.000970   0.009861  -0.000031   0.001686   0.000001   0.000006
     4  C    0.000006  -0.000649  -0.000001   0.000004   0.000000   0.000000
     5  C    0.000000   0.000007   0.000000  -0.000001   0.000000   0.000000
     6  C    0.000000   0.000001  -0.000001   0.000000   0.000000   0.000000
     7  H    0.000000  -0.000002   0.000029   0.000000   0.000000   0.000000
     8  H   -0.000001  -0.000013   0.000000   0.000029   0.000000   0.000000
     9  H    0.000000   0.000000   0.000000   0.000000   0.000000   0.000000
    10  H    0.000000   0.000000   0.000000   0.000000   0.000000   0.000000
    11  C    0.000586   0.019754  -0.021243  -0.000245  -0.000671   0.000043
    12  C   -0.043905  -0.041054  -0.037687   0.012056   0.009349   0.000924
    13  C    0.029615   0.398569   0.012092  -0.037684   0.000789   0.009032
    14  C    0.010232  -0.128702  -0.000244  -0.021191   0.000043  -0.000673
    15  H   -0.000030  -0.000262   0.001335   0.000009   0.000002  -0.000001
    16  H    0.001747  -0.021740   0.000009   0.001353  -0.000001   0.000002
    17  C   -0.041299  -0.131012   0.385839  -0.000262  -0.125447   0.018671
    18  C    0.336408  -0.042444  -0.038887   0.011876   0.436779  -0.053505
    19  C    4.956328   0.368052   0.011872  -0.038561  -0.047862   0.441133
    20  C    0.368052   5.329523  -0.000252   0.385407   0.018815  -0.122713
    21  H    0.011872  -0.000252   0.738469   0.000066  -0.020598  -0.000268
    22  H   -0.038561   0.385407   0.000066   0.738336  -0.000250  -0.020646
    23  C   -0.047862   0.018815  -0.020598  -0.000250   5.264279  -0.117451
    24  C    0.441133  -0.122713  -0.000268  -0.020646  -0.117451   5.213319
    25  H    0.011955  -0.000253   0.001405   0.000009   0.378321  -0.000106
    26  H   -0.028947  -0.021959   0.000009   0.001380  -0.000401   0.377712
    27  C    0.001159   0.000035  -0.000013   0.000000  -0.107254   0.016143
    28  C    0.000052   0.000000   0.000000   0.000000   0.009000  -0.000586
    29  C   -0.000646   0.000008   0.000000   0.000000  -0.000736   0.007902
    30  C    0.007165  -0.000739   0.000000  -0.000018   0.020028  -0.109002
    31  H   -0.000049  -0.000002   0.000021   0.000000  -0.021456  -0.000296
    32  H   -0.000003   0.000000   0.000000   0.000000   0.000607  -0.000395
    33  H    0.000021   0.000000   0.000000   0.000000   0.000071  -0.000519
    34  H    0.001111  -0.000002   0.000000   0.000012  -0.000429  -0.012415
    35  C    0.018994   0.010310  -0.000005   0.001651  -0.042458   0.392041
    36  C   -0.047352   0.000343   0.001594  -0.000024   0.368664  -0.020792
    37  H    0.000124   0.000000   0.000000   0.000000  -0.000310   0.000166
    38  H   -0.000004   0.000000   0.000000   0.000000  -0.000400   0.000070
              25         26         27         28         29         30
     1  C    0.000000   0.000000   0.000000   0.000000   0.000000   0.000000
     2  C   -0.000001   0.000000   0.000000   0.000000   0.000000   0.000000
     3  C    0.000000  -0.000001   0.000000   0.000000   0.000000   0.000000
     4  C    0.000000   0.000000   0.000000   0.000000   0.000000   0.000000
     5  C    0.000000   0.000000   0.000000   0.000000   0.000000   0.000000
     6  C    0.000000   0.000000   0.000000   0.000000   0.000000   0.000000
     7  H    0.000000   0.000000   0.000000   0.000000   0.000000   0.000000
     8  H    0.000000   0.000000   0.000000   0.000000   0.000000   0.000000
     9  H    0.000000   0.000000   0.000000   0.000000   0.000000   0.000000
    10  H    0.000000   0.000000   0.000000   0.000000   0.000000   0.000000
    11  C    0.000003  -0.000001   0.000000   0.000000   0.000000   0.000000
    12  C    0.001794  -0.000042   0.000008   0.000000   0.000000   0.000000
    13  C   -0.000031   0.001794   0.000000   0.000000   0.000000   0.000011
    14  C   -0.000001   0.000008   0.000000   0.000000   0.000000   0.000000
    15  H    0.000028   0.000000   0.000000   0.000000   0.000000   0.000000
    16  H    0.000000   0.000028   0.000000   0.000000   0.000000   0.000000
    17  C   -0.022206  -0.000245  -0.000523   0.000004   0.000000   0.000036
    18  C   -0.030453   0.012332   0.005611  -0.000609   0.000046   0.001696
    19  C    0.011955  -0.028947   0.001159   0.000052  -0.000646   0.007165
    20  C   -0.000253  -0.021959   0.000035   0.000000   0.000008  -0.000739
    21  H    0.001405   0.000009  -0.000013   0.000000   0.000000   0.000000
    22  H    0.000009   0.001380   0.000000   0.000000   0.000000  -0.000018
    23  C    0.378321  -0.000401  -0.107254   0.009000  -0.000736   0.020028
    24  C   -0.000106   0.377712   0.016143  -0.000586   0.007902  -0.109002
    25  H    0.733342   0.000067  -0.017347   0.000388   0.000013  -0.000335
    26  H    0.000067   0.733564  -0.000157   0.000006   0.000285  -0.015718
    27  C   -0.017347  -0.000157   5.132778   0.373361  -0.043848  -0.082563
    28  C    0.000388   0.000006   0.373361   4.625515   0.451529  -0.041609
    29  C    0.000013   0.000285  -0.043848   0.451529   4.580927   0.397887
    30  C   -0.000335  -0.015718  -0.082563  -0.041609   0.397887   5.171920
    31  H    0.003375   0.000007   0.370585  -0.046376   0.004102   0.000853
    32  H   -0.000028  -0.000026  -0.031994   0.343837  -0.034646   0.022659
    33  H    0.000001  -0.000050   0.005202  -0.017765   0.357082  -0.010725
    34  H    0.000010   0.003853   0.001532   0.002685  -0.041117   0.372760
    35  C    0.011704  -0.041605  -0.070615  -0.033747  -0.026807   0.506605
    36  C   -0.039478   0.012417   0.559201  -0.026236  -0.030110  -0.075416
    37  H   -0.000014  -0.000099   0.012070  -0.039365   0.358528  -0.022204
    38  H   -0.000034   0.000001  -0.003195   0.359726  -0.019262   0.003130
              31         32         33         34         35         36
     1  C    0.000000   0.000000   0.000000   0.000000   0.000000   0.000000
     2  C    0.000000   0.000000   0.000000   0.000000   0.000000   0.000000
     3  C    0.000000   0.000000   0.000000   0.000000   0.000000   0.000000
     4  C    0.000000   0.000000   0.000000   0.000000   0.000000   0.000000
     5  C    0.000000   0.000000   0.000000   0.000000   0.000000   0.000000
     6  C    0.000000   0.000000   0.000000   0.000000   0.000000   0.000000
     7  H    0.000000   0.000000   0.000000   0.000000   0.000000   0.000000
     8  H    0.000000   0.000000   0.000000   0.000000   0.000000   0.000000
     9  H    0.000000   0.000000   0.000000   0.000000   0.000000   0.000000
    10  H    0.000000   0.000000   0.000000   0.000000   0.000000   0.000000
    11  C    0.000000   0.000000   0.000000   0.000000   0.000002   0.000004
    12  C   -0.000001   0.000000   0.000000   0.000000   0.000027  -0.000995
    13  C    0.000000   0.000000   0.000000   0.000000  -0.000968   0.000059
    14  C    0.000000   0.000000   0.000000   0.000000   0.000003   0.000002
    15  H    0.000000   0.000000   0.000000   0.000000   0.000000  -0.000001
    16  H    0.000000   0.000000   0.000000   0.000000  -0.000001   0.000000
    17  C    0.000000  -0.000001   0.000000  -0.000001   0.000270   0.011123
    18  C    0.001471   0.000021  -0.000005  -0.000016  -0.040514   0.019626
    19  C   -0.000049  -0.000003   0.000021   0.001111   0.018994  -0.047352
    20  C   -0.000002   0.000000   0.000000  -0.000002   0.010310   0.000343
    21  H    0.000021   0.000000   0.000000   0.000000  -0.000005   0.001594
    22  H    0.000000   0.000000   0.000000   0.000012   0.001651  -0.000024
    23  C   -0.021456   0.000607   0.000071  -0.000429  -0.042458   0.368664
    24  C   -0.000296  -0.000395  -0.000519  -0.012415   0.392041  -0.020792
    25  H    0.003375  -0.000028   0.000001   0.000010   0.011704  -0.039478
    26  H    0.000007  -0.000026  -0.000050   0.003853  -0.041605   0.012417
    27  C    0.370585  -0.031994   0.005202   0.001532  -0.070615   0.559201
    28  C   -0.046376   0.343837  -0.017765   0.002685  -0.033747  -0.026236
    29  C    0.004102  -0.034646   0.357082  -0.041117  -0.026807  -0.030110
    30  C    0.000853   0.022659  -0.010725   0.372760   0.506605  -0.075416
    31  H    0.699049   0.004068  -0.000525   0.000102   0.011061  -0.006483
    32  H    0.004068   0.694420  -0.006582   0.002707  -0.005031  -0.006106
    33  H   -0.000525  -0.006582   0.705120  -0.011498   0.003871   0.003171
    34  H    0.000102   0.002707  -0.011498   0.683317  -0.016289   0.008491
    35  C    0.011061  -0.005031   0.003871  -0.016289   4.921571   0.325190
    36  C   -0.006483  -0.006106   0.003171   0.008491   0.325190   4.885557
    37  H    0.001701   0.015114  -0.039577   0.006521  -0.026740   0.003284
    38  H   -0.008316  -0.035590  -0.002446  -0.000665   0.002901   0.001244
              37         38
     1  C    0.000000   0.000000
     2  C    0.000000   0.000000
     3  C    0.000000   0.000000
     4  C    0.000000   0.000000
     5  C    0.000000   0.000000
     6  C    0.000000   0.000000
     7  H    0.000000   0.000000
     8  H    0.000000   0.000000
     9  H    0.000000   0.000000
    10  H    0.000000   0.000000
    11  C    0.000000   0.000000
    12  C    0.000000   0.000000
    13  C    0.000000   0.000000
    14  C    0.000000   0.000000
    15  H    0.000000   0.000000
    16  H    0.000000   0.000000
    17  C    0.000000   0.000000
    18  C   -0.000107   0.000016
    19  C    0.000124  -0.000004
    20  C    0.000000   0.000000
    21  H    0.000000   0.000000
    22  H    0.000000   0.000000
    23  C   -0.000310  -0.000400
    24  C    0.000166   0.000070
    25  H   -0.000014  -0.000034
    26  H   -0.000099   0.000001
    27  C    0.012070  -0.003195
    28  C   -0.039365   0.359726
    29  C    0.358528  -0.019262
    30  C   -0.022204   0.003130
    31  H    0.001701  -0.008316
    32  H    0.015114  -0.035590
    33  H   -0.039577  -0.002446
    34  H    0.006521  -0.000665
    35  C   -0.026740   0.002901
    36  C    0.003284   0.001244
    37  H    0.710736  -0.010765
    38  H   -0.010765   0.677929
 Mulliken charges:
               1
     1  C   -0.004461
     2  C    0.048796
     3  C    0.048816
     4  C   -0.004532
     5  C    0.012503
     6  C    0.012615
     7  H   -0.022990
     8  H   -0.023000
     9  H   -0.006719
    10  H   -0.006715
    11  C   -0.029956
    12  C    0.062554
    13  C    0.063415
    14  C   -0.029933
    15  H   -0.032134
    16  H   -0.032090
    17  C   -0.030647
    18  C    0.057102
    19  C    0.053030
    20  C   -0.029537
    21  H   -0.035211
    22  H   -0.034960
    23  C   -0.021031
    24  C   -0.017798
    25  H   -0.032125
    26  H   -0.034212
    27  C   -0.120173
    28  C    0.040191
    29  C    0.038862
    30  C   -0.146421
    31  H   -0.012892
    32  H    0.036969
    33  H    0.015152
    34  H   -0.000668
    35  C    0.098579
    36  C    0.053022
    37  H    0.030938
    38  H    0.035659
 Sum of Mulliken charges =   0.00000
 Mulliken charges with hydrogens summed into heavy atoms:
               1
     1  C   -0.027451
     2  C    0.048796
     3  C    0.048816
     4  C   -0.027532
     5  C    0.005784
     6  C    0.005901
    11  C   -0.062090
    12  C    0.062554
    13  C    0.063415
    14  C   -0.062023
    17  C   -0.065858
    18  C    0.057102
    19  C    0.053030
    20  C   -0.064497
    23  C   -0.053156
    24  C   -0.052010
    27  C   -0.133065
    28  C    0.112819
    29  C    0.084953
    30  C   -0.147090
    35  C    0.098579
    36  C    0.053022
 Electronic spatial extent (au):  <R**2>=           9424.9478
 Charge=              0.0000 electrons
 Dipole moment (field-independent basis, Debye):
    X=             -0.9584    Y=              0.0040    Z=              0.0037  Tot=              0.9584
 Quadrupole moment (field-independent basis, Debye-Ang):
   XX=           -107.5570   YY=           -113.9957   ZZ=           -134.1737
   XY=             -0.1569   XZ=              0.0895   YZ=              1.0115
 Traceless Quadrupole moment (field-independent basis, Debye-Ang):
   XX=             11.0185   YY=              4.5798   ZZ=            -15.5983
   XY=             -0.1569   XZ=              0.0895   YZ=              1.0115
 Octapole moment (field-independent basis, Debye-Ang**2):
  XXX=            -25.5189  YYY=              0.5695  ZZZ=              1.1843  XYY=              6.4916
  XXY=              1.5345  XXZ=              2.0595  XZZ=            -12.6737  YZZ=             -0.4912
  YYZ=             -1.9810  XYZ=             -0.0990
 Hexadecapole moment (field-independent basis, Debye-Ang**3):
 XXXX=         -10650.3639 YYYY=          -1095.3815 ZZZZ=           -186.0361 XXXY=            -13.4768
 XXXZ=             -3.0783 YYYX=             -2.0867 YYYZ=              8.5477 ZZZX=             -6.1037
 ZZZY=             -0.2416 XXYY=          -2023.2904 XXZZ=          -2130.3808 YYZZ=           -249.7325
 XXYZ=             16.0735 YYXZ=              9.0110 ZZXY=              1.9590
 N-N= 1.538182369876D+03 E-N=-5.040975112461D+03  KE= 8.425236865056D+02
 Calling FoFJK, ICntrl=      2127 FMM=F ISym2X=0 I1Cent= 0 IOpClX= 0 NMat=1 NMatS=1 NMatT=0.
 ***** Axes restored to original set *****
 -------------------------------------------------------------------
 Center     Atomic                   Forces (Hartrees/Bohr)
 Number     Number              X              Y              Z
 -------------------------------------------------------------------
      1        6          -0.026488701    0.041376317   -0.020266738
      2        6          -0.000243598   -0.037076004    0.028797812
      3        6           0.038978385    0.009213282   -0.024433720
      4        6          -0.049980939    0.013565455    0.011739309
      5        6           0.041771183   -0.009753635   -0.011036316
      6        6           0.020391508   -0.034882515    0.017961949
      7        1          -0.007285233   -0.010205028    0.011064740
      8        1           0.008966976    0.008993062   -0.010882316
      9        1          -0.007095009    0.013248215   -0.007100367
     10        1          -0.015678910    0.003100793    0.004532795
     11        6          -0.001088369    0.023745414   -0.017802662
     12        6          -0.013659679   -0.035327479    0.033472929
     13        6           0.033327283    0.020974164   -0.031283786
     14        6          -0.025084507   -0.005193050    0.014792727
     15        1          -0.008330017   -0.009720073    0.011096448
     16        1           0.008198833    0.009818047   -0.011115306
     17        6           0.001984455    0.020102888   -0.016222204
     18        6          -0.013827556   -0.039142875    0.035584110
     19        6           0.034238152    0.022935249   -0.032848304
     20        6          -0.019491085   -0.006804500    0.015336739
     21        1          -0.008297608   -0.009688663    0.010954526
     22        1           0.008233421    0.009859760   -0.010866399
     23        6          -0.004979726    0.022724409   -0.014751689
     24        6          -0.026817385   -0.009418094    0.004374374
     25        1          -0.008899824   -0.009222173    0.010971717
     26        1           0.008665800    0.010425941   -0.009730764
     27        6           0.016728801    0.036093072   -0.026914702
     28        6          -0.037309221    0.038785378    0.020228795
     29        6          -0.015157623   -0.013882066   -0.042940613
     30        6          -0.003381515   -0.004028110    0.032928591
     31        1          -0.011413162   -0.011093572    0.006785079
     32        1          -0.001358377   -0.016286439   -0.024404643
     33        1           0.021538209   -0.002957487   -0.003479669
     34        1           0.010886537    0.014796589   -0.009385828
     35        6           0.040049732    0.006556351   -0.033627864
     36        6           0.007026803   -0.063460734    0.051243996
     37        1          -0.002809175    0.015707048    0.021988953
     38        1           0.007691141   -0.013878938    0.015238298
 -------------------------------------------------------------------
 Cartesian Forces:  Max     0.063460734 RMS     0.021779096

 GradGradGradGradGradGradGradGradGradGradGradGradGradGradGradGradGradGrad
 Berny optimization.
 FormGI is forming the generalized inverse of G from B-inverse, IUseBI=4.
 Internal  Forces:  Max     0.045510637 RMS     0.009608480
 Search for a local minimum.
 Step number   1 out of a maximum of  228
 All quantities printed in internal units (Hartrees-Bohrs-Radians)
 Mixed Optimization -- RFO/linear search
 Second derivative matrix not updated -- first step.
 ITU=  0
     Eigenvalues ---    0.00708   0.00897   0.01040   0.01506   0.01894
     Eigenvalues ---    0.01906   0.02041   0.02046   0.02054   0.02057
     Eigenvalues ---    0.02069   0.02070   0.02070   0.02070   0.02070
     Eigenvalues ---    0.02070   0.02070   0.02070   0.02070   0.02070
     Eigenvalues ---    0.02070   0.02070   0.02070   0.02071   0.02071
[...]
 026936,0.00021960,0.00053279,-0.00040173,-0.00063115,0.00034717,-0.000
 24701,-0.00126128,0.00199022,-0.00191118,0.00995081,0.01005663,-0.0075
 3215,-0.12760008,-0.08864532,0.08482975,0.00001725,-0.00025836,-0.0001
 2087,-0.00003049,-0.00015672,0.00013283,0.00074652,-0.00030570,0.00052
 514,0.13245166,0.00000653,0.00001016,-0.00001159,-0.00000789,-0.000017
 37,0.00001326,0.00000812,0.00001070,-0.00001473,-0.00000330,-0.0000051
 8,0.00001884,-0.00000339,0.00000562,-0.00000388,-0.00001371,0.00000071
 ,0.00000628,-0.00000219,-0.00000227,0.00000326,0.00000315,0.00000342,-
 0.00000300,-0.00000370,0.00000263,-0.00000275,-0.00000370,0.00000178,0
 .00000062,-0.00000975,0.00001912,-0.00001781,-0.00000173,-0.00003854,0
 .00001677,0.00001509,0.00003485,-0.00002504,-0.00002938,-0.00004240,-0
 .00001321,-0.00000397,-0.00000254,0.00000440,0.00000375,0.00000625,-0.
 00000289,-0.00001196,0.00007058,0.00000109,-0.00000387,-0.00019230,-0.
 00023207,-0.00009713,0.00005082,-0.00006440,0.00005521,0.00012971,0.00
 024829,0.00000787,0.00000066,0.00002872,0.00000930,0.00000510,-0.00000
 818,0.00001854,-0.00015860,0.00010697,0.00036072,-0.00131846,-0.003672
 18,0.00007535,0.00024679,0.00028948,-0.00057354,0.00030392,0.00013697,
 -0.00054671,0.00055802,-0.00119495,0.00450740,-0.00007627,0.00290369,-
 0.01006035,-0.00955532,0.00902586,-0.09415533,-0.15558321,0.11510774,-
 0.00053071,-0.00043060,-0.00081860,-0.00051121,-0.00053420,0.00018954,
 -0.00044717,0.00106009,-0.00085627,0.09567029,0.15931194,-0.00003961,0
 .00001730,0.00000152,0.00007087,-0.00009794,0.00004371,0.00005836,0.00
 004658,-0.00006469,-0.00002553,0.00001209,0.00001645,0.00001542,0.0000
 5434,-0.00005177,0.00003739,-0.00003623,0.00001350,0.00000354,-0.00000
 041,-0.00000018,-0.00000002,0.00000509,-0.00000209,-0.00000023,-0.0000
 0185,-0.00000073,-0.00000362,0.00000040,0.00000212,-0.00007943,0.00006
 212,-0.00002209,0.00013191,-0.00024949,0.00010063,0.00014856,0.0000073
 1,-0.00007143,-0.00008985,0.00004009,-0.00006149,0.00000799,0.00000178
 ,-0.00000329,-0.00000074,0.00001166,-0.00000383,-0.00015512,0.00019850
 ,-0.00001118,0.00015957,-0.00075913,0.00012113,0.00044664,-0.00030012,
 -0.00014622,-0.00004593,0.00043169,0.00011688,0.00002572,0.00003806,0.
 00001770,-0.00000913,0.00002092,-0.00001003,-0.00049651,0.00050824,0.0
 0003663,-0.00259398,-0.00224391,-0.00308551,0.00017333,0.00032817,0.00
 036706,0.00051958,-0.00000324,0.00019215,-0.00165288,0.00060450,-0.000
 72048,-0.00050476,0.00190999,-0.00118054,0.01074471,0.00482562,-0.0013
 2328,0.08437862,0.11473672,-0.13326923,-0.00045165,-0.00054817,-0.0012
 1521,-0.00040585,-0.00077761,0.00038787,-0.00043313,0.00015829,0.00039
 709,-0.09426074,-0.12551099,0.13205025,0.00031786,-0.00027546,0.000077
 42,0.00058285,0.00162123,-0.00158739,-0.00472272,0.00105559,0.00117930
 ,0.00158059,-0.00139348,0.00054644,-0.00163686,-0.00013305,0.00081540,
 0.00055982,0.00088956,-0.00093991,0.00000901,-0.00001026,0.00000328,0.
 00002275,0.00003411,-0.00003951,-0.00003960,-0.00001620,0.00000677,-0.
 00002433,0.00002125,-0.00000601,0.00075882,-0.00055675,0.00012762,0.00
 126134,0.00318764,-0.00278714,-0.01273145,0.00520411,0.00157255,0.0046
 8895,-0.00479408,0.00122033,0.00002851,-0.00001466,-0.00000420,0.00006
 699,0.00008224,-0.00009494,0.00115636,-0.00071260,-0.00004622,0.003963
 03,0.00530924,-0.00795741,-0.05260027,0.03924131,-0.01028072,0.0121539
 8,-0.01255667,0.00850347,0.00023459,-0.00005618,-0.00019893,0.00021709
 ,0.00027519,-0.00043390,-0.01323244,-0.01819198,0.02014425,-0.10944310
 ,0.05963161,-0.02780725,-0.00330744,0.00206660,0.00112822,0.00886171,-
 0.01216322,0.00844707,0.02228565,-0.00712497,0.00571807,-0.00519494,-0
 .00000409,-0.00245617,-0.02481477,0.01150090,-0.00770410,-0.41616982,0
 .03757735,0.04531275,0.00023759,0.00501524,-0.00036694,0.00066293,-0.0
 0032652,-0.00359984,0.00135033,0.00219133,-0.00036357,-0.01091207,0.00
 538901,0.00271108,0.72817974,-0.00056721,0.00031114,-0.00003471,0.0003
 9367,-0.00180607,0.00121217,0.00331773,-0.00020105,-0.00123699,-0.0011
 8637,0.00101679,-0.00008212,0.00109090,0.00053544,-0.00090744,0.000036
 41,-0.00080921,0.00065489,0.00002330,0.00000108,-0.00001239,-0.0000173
 7,0.00002385,-0.00001148,0.00000711,-0.00002097,-0.00002873,-0.0000152
 6,-0.00001061,0.00002082,-0.00123450,0.00094652,-0.00017043,0.00120744
 ,-0.00350666,0.00287994,0.00890648,-0.00238324,-0.00218359,-0.00425079
 ,0.00292555,-0.00160201,0.00004456,0.00001107,-0.00004237,-0.00005093,
 0.00005931,-0.00001976,-0.00279892,0.00156569,-0.00059098,0.00091284,-
 0.01183388,0.00423976,0.03624832,-0.01089523,-0.00027956,-0.01032035,0
 .01469396,0.00041045,-0.00011409,0.00002151,-0.00019829,-0.00037315,0.
 00021793,-0.00013775,-0.00753155,0.01444979,-0.00434187,0.06133390,-0.
 19853873,0.08852983,0.00405006,0.00113597,0.00030233,0.00802554,-0.009
 58247,0.00562337,-0.00738957,-0.02407374,0.02277180,-0.00315694,0.0016
 2312,-0.00133170,0.02468788,-0.00117628,0.00127821,0.03778616,-0.08994
 131,0.02008438,0.00326644,-0.00110546,0.00342993,0.00050903,0.00038578
 ,-0.00064242,0.00210850,-0.00326424,0.00256634,-0.02004152,0.00472852,
 0.00419851,-0.10361386,0.45172319,0.00037623,-0.00022595,-0.00002099,-
 0.00044769,0.00097448,-0.00068413,-0.00140328,-0.00006197,0.00066254,0
 .00062084,-0.00023862,0.00020851,-0.00047111,-0.00032656,0.00045868,-0
 .00008670,0.00045104,-0.00029189,-0.00001492,-0.00000250,0.00000588,0.
 00000698,-0.00001825,0.00000959,-0.00001825,-0.00002240,-0.00003014,0.
 00001433,0.00000953,-0.00000635,0.00098805,-0.00058161,0.00015020,-0.0
 0102352,0.00262399,-0.00084581,-0.00364995,0.00029376,0.00139607,0.001
 51959,-0.00203880,-0.00045650,-0.00003187,-0.00001572,0.00001653,0.000
 02157,-0.00003612,0.00003061,0.00221070,-0.00181641,-0.00035309,-0.004
 66699,0.00411498,-0.00680869,-0.01030792,-0.00226810,0.00970030,0.0091
 8031,-0.00049936,0.00589193,-0.00010538,-0.00024366,-0.00007989,0.0001
 4713,-0.00034272,0.00001113,0.01657038,0.00010447,-0.00241300,-0.02826
 694,0.08878927,-0.12227593,0.00048751,0.00084682,0.00283146,-0.0087115
 9,0.01476384,-0.00438140,0.00101062,0.01789533,-0.00667821,-0.00187194
 ,-0.00431177,-0.00271566,-0.02108278,0.00542055,0.00420718,0.06104539,
 0.01569909,-0.08195615,0.00208662,0.00327255,0.00658019,0.00173794,0.0
 0099809,0.00052799,-0.00123102,0.00275773,-0.00173326,0.01824111,-0.00
 031458,0.00127123,-0.07948100,-0.20545836,0.32848886,0.00193577,-0.001
 14448,0.00019691,-0.00174022,0.00413301,-0.00251877,-0.00259808,-0.000
 35541,0.00137751,0.00062056,-0.00051139,0.00012123,-0.00116706,-0.0003
 8544,0.00082411,0.00024612,0.00156910,-0.00136865,0.00002132,-0.000017
 98,0.00000639,-0.00000005,0.00001990,-0.00001647,-0.00001816,-0.000011
 82,0.00002119,-0.00001276,0.00001446,-0.00002831,0.00644314,-0.0039703
 2,-0.00018804,-0.00733556,0.01041797,-0.00547821,-0.00535736,-0.000329
 32,0.00289116,0.00162147,-0.00108750,0.00019689,0.00005483,-0.00005474
 ,0.00002355,0.00001159,0.00003637,-0.00004450,0.02198236,-0.00838391,0
 .00154980,-0.03774750,0.04128699,-0.01063745,-0.01398735,-0.00328715,0
 .00577791,0.00302464,-0.00250294,0.00037433,0.00030264,-0.00035152,0.0
 0010717,0.00014596,-0.00013715,-0.00006602,-0.25515661,0.02898339,0.06
 596993,0.02151019,0.00006842,-0.00645686,-0.00964341,0.00353534,0.0012
 0365,-0.00118518,0.00443100,-0.00136356,-0.14542892,0.11524238,-0.0217
 0192,-0.01692878,0.03063935,-0.00391768,0.00241711,-0.00009904,0.00046
 783,-0.02073124,-0.01865523,0.01967849,0.00792714,-0.01582018,0.006309
 66,-0.00121429,0.00001310,-0.00248456,0.00030404,-0.00051165,0.0003157
 7,-0.00419563,0.00158602,0.00125385,-0.13543400,-0.03170356,0.04755588
 ,0.59609525,-0.00136438,0.00078996,0.00017398,0.00180898,-0.00279216,0
 .00145080,0.00094270,0.00078431,-0.00110413,-0.00022284,0.00008395,0.0
 0000839,0.00051770,0.00061012,-0.00068723,0.00031596,-0.00105591,0.000
 70679,0.00003686,0.00002302,-0.00003678,-0.00001341,0.00001022,-0.0000
 0417,0.00002435,-0.00001829,0.00000746,-0.00001031,-0.00004365,-0.0000
 0378,-0.00453904,0.00167488,-0.00048222,0.00658635,-0.00711001,0.00298
 754,0.00177780,0.00186632,-0.00166966,-0.00039074,0.00029595,-0.000026
 70,0.00008686,0.00006471,-0.00008618,-0.00002023,0.00002919,-0.0000241
 1,-0.01063759,0.00707892,0.00619320,0.04385887,-0.02509766,0.00236841,
 0.00139048,0.00282782,-0.00706389,-0.00040062,0.00020709,-0.00039391,0
 .00031806,0.00012948,-0.00041965,-0.00007695,0.00009647,-0.00029540,0.
 02730419,-0.08042283,0.00419798,-0.01000090,-0.01397819,0.01734807,-0.
 01670634,0.00600010,0.00571715,0.00250975,-0.00050035,0.00205308,0.116
 21808,-0.33477981,0.10312993,0.01682868,-0.01305599,-0.00170684,0.0025
 2096,-0.00609783,-0.00192891,-0.01983212,0.01423961,0.00724174,0.01015
 686,-0.01099043,0.00744655,0.00115853,0.00221197,0.00535580,0.00016086
 ,0.00031257,-0.00019759,0.00357084,0.00330688,0.00190963,-0.02136102,-
 0.13692740,0.05956676,-0.15329409,0.58756218,0.00005203,0.00022918,0.0
 0008039,-0.00025983,-0.00018070,0.00027068,0.00061274,-0.00033437,-0.0
 0009372,-0.00019527,0.00017431,-0.00009632,0.00023579,-0.00010768,0.00
 001561,-0.00023528,-0.00009056,0.00016681,-0.00002226,-0.00000469,0.00
 001184,0.00000314,-0.00001208,0.00000581,-0.00000081,0.00001641,-0.000
 00485,-0.00001097,-0.00002096,-0.00003431,-0.00062884,-0.00024944,-0.0
 0095958,-0.00092527,-0.00043099,0.00072605,0.00180219,-0.00045689,0.00
 039973,-0.00056441,0.00052418,-0.00006156,-0.00004817,-0.00000626,0.00
 003734,-0.00000288,-0.00003100,0.00001533,0.00075386,0.00692156,0.0036
 7973,-0.01284559,0.00118941,0.00905236,0.00398489,-0.00481509,-0.00351
 994,-0.00179889,0.00094933,-0.00086249,-0.00036293,-0.00005808,0.00001
 404,-0.00014750,-0.00023300,-0.00006624,0.06657458,0.00415842,-0.09464
 979,0.00023396,0.01731094,-0.00872814,0.01809227,-0.00379818,-0.001456
 68,-0.00039042,0.00198040,0.00234585,-0.03115097,0.11641182,-0.1078737
 4,0.00615059,-0.01050135,0.00819486,-0.00289286,-0.00288958,-0.0025925
 5,0.01671766,0.00125173,-0.00198080,-0.00636629,0.01598684,-0.00185006
 ,0.00045066,-0.00106435,-0.00156219,-0.00018947,-0.00020172,0.00042990
 ,0.00005078,0.00384212,0.00660190,0.04300605,0.06139752,-0.13042682,-0
 .10235917,-0.20828477,0.32472453,-0.00002880,0.00000572,0.00000933,0.0
 0008497,-0.00004899,0.00000775,-0.00002054,0.00006282,-0.00004235,-0.0
 0000980,-0.00001831,0.00000843,-0.00001262,0.00005549,-0.00003795,0.00
 005601,-0.00001691,-0.00001090,0.00000457,-0.00000042,-0.00000241,-0.0
 0000118,0.00000511,-0.00000425,0.00000082,-0.00000147,0.00000245,-0.00
 000334,-0.00000037,0.00000105,-0.00003533,0.00003533,-0.00001536,0.000
 13200,-0.00015008,0.00004103,-0.00004965,0.00007842,-0.00003105,0.0000
 0008,0.00004033,0.00002102,0.00001001,0.00000015,-0.00000730,-0.000001
 83,0.00001183,-0.00001059,-0.00005087,0.00010867,-0.00004638,0.0002701
 8,-0.00026846,0.00019034,-0.00009819,0.00011340,-0.00009280,-0.0001033
 7,-0.00002840,-0.00019019,0.00001677,0.00000313,-0.00001440,-0.0000006
 3,0.00002389,-0.00002326,-0.00019731,0.00022136,-0.00014804,-0.0000699
 4,0.00099270,0.00090530,0.00000363,-0.00001919,-0.00005262,0.00000846,
 0.00000698,-0.00005631,0.00225014,0.00179981,0.00113253,-0.00364996,-0
 .00832782,-0.01770181,-0.05515710,-0.02548273,-0.04911976,-0.00684360,
 -0.00254908,-0.01468579,-0.00017449,-0.00035598,-0.00066414,-0.0017100
 6,-0.00406055,0.00018706,0.00565460,0.01039411,0.02213199,-0.00024684,
 -0.00008398,-0.00062772,0.00059117,0.00092624,-0.00089548,0.00020407,0
 .00024575,0.00029581,0.05791968,-0.00002248,0.00000788,0.00000247,-0.0
 0008916,-0.00005465,0.00007177,0.00020753,-0.00010577,-0.00000201,-0.0
 0003660,0.00009476,-0.00004453,0.00009999,-0.00006370,0.00000681,-0.00
 007598,-0.00004320,0.00006927,-0.00000303,0.00000544,-0.00000342,-0.00
 000403,-0.00001295,0.00001232,0.00000538,-0.00000417,-0.00000191,0.000
 01214,-0.00000390,-0.00000183,-0.00008867,0.00000536,0.00003997,-0.000
 09465,-0.00004129,0.00011778,0.00048748,-0.00019930,-0.00007910,-0.000
 15637,0.00011579,-0.00009406,-0.00000894,0.00000486,0.00000130,-0.0000
 0357,-0.00002659,0.00002340,-0.00022466,-0.00000992,0.00009231,-0.0002
 1503,-0.00019831,0.00008559,0.00116812,-0.00032233,-0.00005762,-0.0002
 9185,0.00043470,0.00011019,-0.00001880,0.00000226,0.00000881,-0.000005
 58,-0.00004997,0.00004840,-0.00056186,-0.00005183,0.00004789,-0.001244
 86,-0.00056526,-0.00170271,-0.00002677,0.00002551,0.00004733,0.0000035
 2,-0.00007843,0.00012096,0.00027007,0.00086023,-0.00105016,-0.00485005
 ,-0.01165400,-0.02409206,-0.01996447,-0.07835334,-0.07665193,0.0053668
 6,0.00971371,0.01859989,-0.00046600,-0.00035297,-0.00064971,-0.0051819
 5,-0.00474640,0.00114936,-0.00232627,-0.00379563,-0.00693996,-0.000500
 93,-0.00118443,-0.00067635,0.00280879,-0.00049228,0.00042567,0.0001146
 1,0.00048759,0.00203258,0.02498351,0.08970457,-0.00004890,0.00006694,-
 0.00003134,0.00004508,-0.00024028,0.00017501,0.00030280,0.00005390,-0.
 00016947,-0.00012267,0.00003734,0.00001893,0.00008445,0.00009323,-0.00
 010986,-0.00001680,-0.00008658,0.00007769,-0.00000346,-0.00000875,0.00
 000676,0.00000561,0.00001063,-0.00001273,-0.00000665,0.00000901,-0.000
 00435,-0.00001460,0.00000296,0.00000278,-0.00016329,0.00017598,-0.0000
 6688,0.00014555,-0.00052561,0.00035979,0.00072570,-0.00007195,-0.00029
 123,-0.00034273,0.00024281,-0.00001487,-0.00000472,-0.00000798,0.00000
 421,0.00000085,0.00001899,-0.00002022,-0.00040103,0.00037426,-0.000138
 15,0.00033145,-0.00114529,0.00073255,0.00194989,-0.00020847,-0.0004175
 2,-0.00090480,0.00063560,-0.00022677,-0.00000816,-0.00000907,-0.000002
 66,-0.00000284,0.00003731,-0.00002932,-0.00082986,0.00101112,-0.000056
 09,-0.00244886,0.00248309,-0.00013977,-0.00001153,-0.00001587,-0.00001
 298,-0.00005336,-0.00000538,-0.00014090,-0.00269839,0.00060306,-0.0010
 1187,0.00056265,0.00088575,0.00319710,-0.04657106,-0.08809282,-0.22621
 699,-0.01228775,0.00225711,-0.01570046,0.00009522,0.00022311,0.0003514
 9,0.00113616,0.00063210,0.00138534,-0.00370973,-0.00485813,-0.01123826
 ,-0.00050371,0.00061092,-0.00054377,0.00594108,-0.00045621,-0.00065254
 ,0.00049159,-0.00360424,0.00088527,0.05925684,0.08923054,0.24928366,0.
 00005080,-0.00000008,-0.00003274,-0.00011912,0.00004716,0.00001100,0.0
 0006179,-0.00006309,0.00002619,-0.00001402,0.00000969,-0.00000062,0.00
 001337,-0.00004658,0.00003041,-0.00007694,0.00002278,0.00001539,-0.000
 00913,-0.00000454,0.00000762,0.00000442,-0.00000158,-0.00000064,-0.000
 00450,0.00000694,-0.00000369,-0.00000247,0.00000381,0.00000014,0.00008
 835,0.00000359,0.00001003,-0.00022568,0.00015769,-0.00000279,0.0001636
 0,-0.00010267,0.00000334,-0.00005260,0.00000258,0.00001818,-0.00001879
 ,-0.00000659,0.00001407,0.00000389,-0.00000605,0.00000345,0.00007628,-
 0.00014908,-0.00019828,-0.00074212,0.00029329,-0.00001820,0.00039550,-
 0.00017120,0.00004372,-0.00012464,0.00000607,0.00004912,-0.00003421,-0
 .00001646,0.00002371,-0.00000008,-0.00001196,0.00000821,0.00075718,0.0
 0120313,0.00029037,-0.00016462,0.00005024,0.00003700,-0.00009425,-0.00
 003271,0.00006284,-0.00003009,0.00000816,-0.00001232,-0.01232568,0.019
 06788,-0.01920670,-0.09661952,0.07623961,-0.07316165,0.00939928,-0.014
 65659,0.01331203,-0.00361916,-0.00327206,-0.00037134,0.00135118,-0.000
 10761,0.00047763,-0.00250027,0.00300120,-0.00222016,0.00019773,0.00057
 983,0.00016313,0.00059580,-0.00061166,0.00098927,0.00049215,-0.0005165
 8,-0.00005288,-0.00498606,0.00053111,0.00238111,0.00125829,0.00093459,
 0.00007998,0.10685434,0.00002193,-0.00001521,0.00000307,-0.00006378,0.
 00004999,-0.00001292,0.00003566,-0.00005421,0.00002752,-0.00000304,0.0
 0002593,-0.00001983,0.00002029,-0.00003958,0.00002286,-0.00003206,0.00
 001007,0.00000528,-0.00000124,0.00000251,-0.00000111,-0.00000156,-0.00
 000490,0.00000475,0.00000207,-0.00000118,0.00000026,0.00000567,-0.0000
 0134,-0.00000121,0.00005735,-0.00006054,0.00002007,-0.00012548,0.00014
 554,-0.00005908,0.00010291,-0.00007828,0.00002401,-0.00002301,0.000029
 48,-0.00001314,-0.00000419,0.00000199,0.00000133,-0.00000146,-0.000009
 68,0.00000881,0.00016445,-0.00017282,0.00007937,-0.00020910,0.00034210
 ,-0.00023897,0.00023844,-0.00013636,-0.00001586,-0.00008399,0.00004027
 ,-0.00000302,-0.00000870,0.00000036,0.00000372,-0.00000428,-0.00001647
 ,0.00001642,0.00041716,-0.00075725,0.00032203,-0.00017499,0.00006832,0
 .00006034,0.00000794,-0.00001158,-0.00001682,-0.00001539,0.00000187,0.
 00002510,0.00352896,-0.00688963,0.00323747,0.07602236,-0.15596348,0.10
 755723,0.01210318,-0.01684107,0.01516946,-0.00541861,-0.00294353,-0.00
 023188,-0.00030453,0.00051860,-0.00042733,-0.00658598,0.00848101,-0.00
 891741,-0.00016572,0.00038710,0.00005851,0.00086684,-0.00072657,0.0010
 7786,0.00020277,0.00019260,-0.00018450,0.00052340,0.00217720,-0.000605
 03,0.00129800,0.00094793,-0.00035915,-0.08239226,0.17130080,0.00002817
 ,-0.00000276,-0.00000593,0.00000395,0.00003663,-0.00003049,-0.00006217
 ,0.00002410,0.00000616,0.00000911,-0.00003229,0.00002103,-0.00003671,0
 .00001578,0.00000354,0.00001239,0.00002506,-0.00002563,-0.00000107,-0.
 00000385,0.00000382,0.00000316,0.00000479,-0.00000510,-0.00000379,0.00
 000352,-0.00000092,-0.00000671,0.00000222,0.00000040,0.00006654,-0.000
 02788,-0.00002773,-0.00001269,0.00007163,-0.00005739,-0.00013730,0.000
 04037,0.00003482,0.00003355,-0.00004671,0.00002515,-0.00000087,-0.0000
 0341,0.00000364,0.00000280,0.00000827,-0.00000765,0.00021185,-0.000044
 21,0.00004162,0.00006230,0.00019769,-0.00015032,-0.00032247,0.00004394
 ,0.00004257,0.00008364,-0.00008607,0.00002840,-0.00000160,-0.00000112,
 0.00000451,0.00000432,0.00001104,-0.00001229,0.00041884,-0.00080025,-0
 .00009754,0.00019021,-0.00019861,0.00007235,-0.00000968,0.00002384,-0.
 00000066,0.00001633,0.00002032,-0.00000337,0.00793600,-0.01093649,0.00
 735510,-0.07473804,0.11019603,-0.14377706,-0.00159323,0.00068618,-0.00
 273330,0.00095615,0.00007384,0.00089154,-0.00077859,0.00016525,0.00033
 348,-0.01145811,0.01670789,-0.01534708,0.00009929,0.00020256,-0.000225
 44,-0.00009890,0.00021231,0.00004921,-0.00030602,0.00016890,0.00036156
 ,0.00191534,0.00015691,-0.00083826,0.00028991,-0.00029726,0.00076842,0
 .07722409,-0.11661819,0.15329883\\-0.00000683,0.00001236,-0.00000323,0
 .00000467,-0.00000173,0.00000018,0.00000754,-0.00000796,0.00000254,-0.
 00001498,0.00000463,-0.00000075,0.00001112,-0.00000535,-0.00000185,0.0
 0000739,-0.00000817,0.00000448,-0.00000305,-0.00000006,0.00000670,-0.0
 0000044,0.00000171,-0.00000745,-0.00000249,0.00000394,-0.00000505,-0.0
 0000497,0.00000172,0.00000391,0.00000995,0.00000490,-0.00000109,-0.000
 00564,0.00001021,-0.00000461,-0.00000435,-0.00000441,0.00000393,-0.000
 00340,-0.00000563,0.00000293,-0.00000202,0.00000002,0.00000732,-0.0000
 0005,0.00000076,-0.00000751,0.00000691,-0.00000534,0.00000004,-0.00000
 125,0.00001289,-0.00000677,-0.00000778,-0.00000593,0.00001210,0.000002
 91,-0.00000398,-0.00000027,0.00000002,0.00000142,0.00000806,0.,-0.0000
 0062,-0.00000726,-0.00001199,0.00000326,0.00000536,0.00000714,0.000003
 45,0.00000348,-0.00000466,-0.00000010,0.00000399,-0.00000153,-0.000005
 01,-0.00000930,0.00000246,-0.00000872,0.00001007,0.00000142,-0.0000009
 6,0.00001274,-0.00000266,0.00000214,0.00004077,-0.00001584,0.00001129,
 -0.00000176,-0.00000792,0.00000422,-0.00000120,-0.00000202,0.00001144,
 -0.00002096,0.00002070,-0.00000608,-0.00000776,0.00000237,-0.00000585,
 -0.00001346,-0.00001419,-0.00000853,-0.00000512,0.00002717,-0.00000310
 ,-0.00001216,0.00000612,-0.00000468,-0.00002235,0.00000014,0.00000186,
 0.00001133\\\@


 THERE IS MORE TO LIFE THAN INCREASING ITS SPEED.

                                       -- GANDHI
 Job cpu time:       0 days  3 hours 18 minutes 28.6 seconds.
 File lengths (MBytes):  RWF=    627 Int=      0 D2E=      0 Chk=     13 Scr=      1
 Normal termination of Gaussian 09 at Fri Jul  7 16:54:54 2017.
23647.76user 238.74system 49:54.32elapsed 797%CPU (0avgtext+0avgdata 2200560maxresident)k
496208inputs+4637520outputs (354major+147862584minor)pagefaults 0swaps
