 Entering Gaussian System, Link 0=g09
 Initial command:
 /panfs/roc/msisoft/gaussian/g09.e01_mesabi/g09/l1.exe "/scratch/graha682/4083693.mesabim3.msi.umn.edu/Gau-9559.inp" -scrdir="/scratch/graha682/4083693.mesabim3.msi.umn.edu/"
 Entering Link 1 = /panfs/roc/msisoft/gaussian/g09.e01_mesabi/g09/l1.exe PID=      9560.
  
 Copyright (c) 1988,1990,1992,1993,1995,1998,2003,2009,2015,
            Gaussian, Inc.  All Rights Reserved.
  
 This is part of the Gaussian(R) 09 program.  It is based on
 the Gaussian(R) 03 system (copyright 2003, Gaussian, Inc.),
 the Gaussian(R) 98 system (copyright 1998, Gaussian, Inc.),
 the Gaussian(R) 94 system (copyright 1995, Gaussian, Inc.),
 the Gaussian 92(TM) system (copyright 1992, Gaussian, Inc.),
 the Gaussian 90(TM) system (copyright 1990, Gaussian, Inc.),
 the Gaussian 88(TM) system (copyright 1988, Gaussian, Inc.),
 the Gaussian 86(TM) system (copyright 1986, Carnegie Mellon
 University), and the Gaussian 82(TM) system (copyright 1983,
 Carnegie Mellon University). Gaussian is a federally registered
 trademark of Gaussian, Inc.
  
 This software contains proprietary and confidential information,
 including trade secrets, belonging to Gaussian, Inc.
  
 This software is provided under written license and may be
 used, copied, transmitted, or stored only in accord with that
 written license.
  
 The following legend is applicable only to US Government
 contracts under FAR:
  
                    RESTRICTED RIGHTS LEGEND
  
 Use, reproduction and disclosure by the US Government is
 subject to restrictions as set forth in subparagraphs (a)
 and (c) of the Commercial Computer Software - Restricted
 Rights clause in FAR 52.227-19.
  
 Gaussian, Inc.
 340 Quinnipiac St., Bldg. 40, Wallingford CT 06492
  
  
 ---------------------------------------------------------------
 Warning -- This program may not be used in any manner that
 competes with the business of Gaussian, Inc. or will provide
 assistance to any competitor of Gaussian, Inc.  The licensee
 of this program is prohibited from giving any competitor of
 Gaussian, Inc. access to this program.  By using this program,
 the user acknowledges that Gaussian, Inc. is engaged in the
 business of creating and licensing software in the field of
 computational chemistry and represents and warrants to the
 licensee that it is not a competitor of Gaussian, Inc. and that
 it will not use this program in any manner prohibited above.
 ---------------------------------------------------------------
  

 Cite this work as:
 Gaussian 09, Revision E.01,
 M. J. Frisch, G. W. Trucks, H. B. Schlegel, G. E. Scuseria, 
 M. A. Robb, J. R. Cheeseman, G. Scalmani, V. Barone, B. Mennucci, 
 G. A. Petersson, H. Nakatsuji, M. Caricato, X. Li, H. P. Hratchian, 
 A. F. Izmaylov, J. Bloino, G. Zheng, J. L. Sonnenberg, M. Hada, 
 M. Ehara, K. Toyota, R. Fukuda, J. Hasegawa, M. Ishida, T. Nakajima, 
 Y. Honda, O. Kitao, H. Nakai, T. Vreven, J. A. Montgomery, Jr., 
 J. E. Peralta, F. Ogliaro, M. Bearpark, J. J. Heyd, E. Brothers, 
 K. N. Kudin, V. N. Staroverov, T. Keith, R. Kobayashi, J. Normand, 
 K. Raghavachari, A. Rendell, J. C. Burant, S. S. Iyengar, J. Tomasi, 
 M. Cossi, N. Rega, J. M. Millam, M. Klene, J. E. Knox, J. B. Cross, 
 V. Bakken, C. Adamo, J. Jaramillo, R. Gomperts, R. E. Stratmann, 
 O. Yazyev, A. J. Austin, R. Cammi, C. Pomelli, J. W. Ochterski, 
 R. L. Martin, K. Morokuma, V. G. Zakrzewski, G. A. Voth, 
 P. Salvador, J. J. Dannenberg, S. Dapprich, A. D. Daniels, 
 O. Farkas, J. B. Foresman, J. V. Ortiz, J. Cioslowski, 
 and D. J. Fox, Gaussian, Inc., Wallingford CT, 2013.
 
 ******************************************
 Gaussian 09:  ES64L-G09RevE.01 30-Nov-2015
                14-Aug-2017 
 ******************************************
 %LindaWorkers=in-cn0635
 %NProcShared=24
 Will use up to   24 processors via shared memory.
 %Mem=59800mb
 %chk=201708_ccpVTZ_m06_12Hpentacene.chk
 SetLPE:  input flags=" -workerwait 900 -opt "Tsnet.Node.lindarsharg: ssh " "
 SetLPE:    new flags=" -workerwait 900 -opt "Tsnet.Node.lindarsharg: ssh "  -nodelist 'in-cn0635'"
 Will use up to    1 processors via Linda.
 -----------------------------------
 # opt cc-pvtz geom=connectivity m06
 -----------------------------------
 1/14=-1,18=20,19=15,26=3,38=1,57=2/1,3;
 2/9=110,12=2,17=6,18=5,40=1/2;
 3/5=16,6=1,11=2,16=1,25=1,30=1,71=1,74=-54/1,2,3;
 4//1;
 5/5=2,38=5/2;
 6/7=2,8=2,9=2,10=2,28=1/1;
 7//1,2,3,16;
 1/14=-1,18=20,19=15,26=3/3(2);
 2/9=110/2;
 99//99;
 2/9=110/2;
 3/5=16,6=1,11=2,16=1,25=1,30=1,71=1,74=-54/1,2,3;
 4/5=5,16=3,69=1/1;
 5/5=2,38=5/2;
 7//1,2,3,16;
 1/14=-1,18=20,19=15,26=3/3(-5);
 2/9=110/2;
 6/7=2,8=2,9=2,10=2,19=2,28=1/1;
 99/9=1/99;
 -------------------
 Title Card Required
 -------------------
 Symbolic Z-matrix:
 Charge =  0 Multiplicity = 1
 C                     5.01452   1.40844   0.06965 
 C                     3.74783   0.72825   0.03662 
 C                     3.74781  -0.72826  -0.0365 
 C                     5.0145   -1.40847  -0.0694 
 C                     6.18395  -0.71776  -0.03517 
 C                     6.18396   0.7177    0.03554 
 H                     5.0095    2.50132   0.12325 
 H                     5.00947  -2.50135  -0.12302 
 H                     7.13782  -1.25071  -0.06108 
 H                     7.13783   1.25064   0.06155 
 C                     2.55138   1.40725   0.07138 
 C                     1.29777   0.73106   0.03806 
 C                     1.29775  -0.73103  -0.03827 
 C                     2.55136  -1.40724  -0.07141 
 H                     2.5531    2.50128   0.12614 
 H                     2.55308  -2.50128  -0.12617 
 C                     0.09625   1.40958   0.07457 
 C                    -1.15699   0.73454   0.04043 
 C                    -1.15701  -0.73448  -0.04089 
 C                     0.09623  -1.40953  -0.07494 
 H                     0.09852   2.50342   0.12979 
 H                     0.09851  -2.50338  -0.13014 
 C                    -2.35404   1.41539   0.06275 
 C                    -2.35406  -1.41533  -0.06331 
 H                    -2.34947   2.51034   0.09115 
 H                    -2.34952  -2.51027  -0.09197 
 C                    -4.79632   1.40806  -0.15852 
 C                    -6.06342   0.65171  -0.38867 
 C                    -6.06331  -0.65177   0.38954 
 C                    -4.79625  -1.40804   0.15864 
 H                    -4.78939   2.50044  -0.22958 
 H                    -6.14344   0.42821  -1.47805 
 H                    -6.94782  -1.25782   0.13772 
 H                    -4.7894   -2.50045   0.22926 
 C                    -3.61575  -0.74095   0.00677 
 C                    -3.61577   0.74099  -0.00705 
 H                    -6.1432   -0.42882   1.47896 
 H                    -6.94784   1.2578   -0.13678 
 

 GradGradGradGradGradGradGradGradGradGradGradGradGradGradGradGradGradGrad
 Berny optimization.
 Initialization pass.
                           ----------------------------
                           !    Initial Parameters    !
                           ! (Angstroms and Degrees)  !
 --------------------------                            --------------------------
 ! Name  Definition              Value          Derivative Info.                !
 --------------------------------------------------------------------------------
 ! R1    R(1,2)                  1.4381         estimate D2E/DX2                !
 ! R2    R(1,6)                  1.3586         estimate D2E/DX2                !
 ! R3    R(1,7)                  1.0942         estimate D2E/DX2                !
 ! R4    R(2,3)                  1.4583         estimate D2E/DX2                !
 ! R5    R(2,11)                 1.3761         estimate D2E/DX2                !
 ! R6    R(3,4)                  1.4381         estimate D2E/DX2                !
 ! R7    R(3,14)                 1.3761         estimate D2E/DX2                !
 ! R8    R(4,5)                  1.3586         estimate D2E/DX2                !
 ! R9    R(4,8)                  1.0942         estimate D2E/DX2                !
 ! R10   R(5,6)                  1.4372         estimate D2E/DX2                !
 ! R11   R(5,9)                  1.093          estimate D2E/DX2                !
 ! R12   R(6,10)                 1.093          estimate D2E/DX2                !
 ! R13   R(11,12)                1.4247         estimate D2E/DX2                !
 ! R14   R(11,15)                1.0954         estimate D2E/DX2                !
 ! R15   R(12,13)                1.4641         estimate D2E/DX2                !
 ! R16   R(12,17)                1.3804         estimate D2E/DX2                !
 ! R17   R(13,14)                1.4247         estimate D2E/DX2                !
 ! R18   R(13,20)                1.3803         estimate D2E/DX2                !
 ! R19   R(14,16)                1.0954         estimate D2E/DX2                !
 ! R20   R(17,18)                1.4239         estimate D2E/DX2                !
 ! R21   R(17,21)                1.0952         estimate D2E/DX2                !
 ! R22   R(18,19)                1.4713         estimate D2E/DX2                !
 ! R23   R(18,23)                1.3773         estimate D2E/DX2                !
 ! R24   R(19,20)                1.4239         estimate D2E/DX2                !
 ! R25   R(19,24)                1.3773         estimate D2E/DX2                !
 ! R26   R(20,22)                1.0952         estimate D2E/DX2                !
 ! R27   R(23,25)                1.0953         estimate D2E/DX2                !
 ! R28   R(23,36)                1.4324         estimate D2E/DX2                !
 ! R29   R(24,26)                1.0953         estimate D2E/DX2                !
 ! R30   R(24,35)                1.4323         estimate D2E/DX2                !
 ! R31   R(27,28)                1.4935         estimate D2E/DX2                !
 ! R32   R(27,31)                1.0947         estimate D2E/DX2                !
 ! R33   R(27,36)                1.3644         estimate D2E/DX2                !
 ! R34   R(28,29)                1.5181         estimate D2E/DX2                !
 ! R35   R(28,32)                1.1149         estimate D2E/DX2                !
 ! R36   R(28,38)                1.1014         estimate D2E/DX2                !
 ! R37   R(29,30)                1.4936         estimate D2E/DX2                !
 ! R38   R(29,33)                1.1014         estimate D2E/DX2                !
 ! R39   R(29,37)                1.1149         estimate D2E/DX2                !
 ! R40   R(30,34)                1.0947         estimate D2E/DX2                !
 ! R41   R(30,35)                1.3644         estimate D2E/DX2                !
 ! R42   R(35,36)                1.482          estimate D2E/DX2                !
 ! A1    A(2,1,6)              121.1382         estimate D2E/DX2                !
 ! A2    A(2,1,7)              118.0004         estimate D2E/DX2                !
 ! A3    A(6,1,7)              120.8614         estimate D2E/DX2                !
 ! A4    A(1,2,3)              118.2635         estimate D2E/DX2                !
 ! A5    A(1,2,11)             122.1295         estimate D2E/DX2                !
 ! A6    A(3,2,11)             119.607          estimate D2E/DX2                !
 ! A7    A(2,3,4)              118.263          estimate D2E/DX2                !
 ! A8    A(2,3,14)             119.6077         estimate D2E/DX2                !
 ! A9    A(4,3,14)             122.1293         estimate D2E/DX2                !
 ! A10   A(3,4,5)              121.1383         estimate D2E/DX2                !
 ! A11   A(3,4,8)              118.0005         estimate D2E/DX2                !
 ! A12   A(5,4,8)              120.8612         estimate D2E/DX2                !
 ! A13   A(4,5,6)              120.5985         estimate D2E/DX2                !
 ! A14   A(4,5,9)              120.1796         estimate D2E/DX2                !
 ! A15   A(6,5,9)              119.2219         estimate D2E/DX2                !
 ! A16   A(1,6,5)              120.5984         estimate D2E/DX2                !
 ! A17   A(1,6,10)             120.1797         estimate D2E/DX2                !
 ! A18   A(5,6,10)             119.2218         estimate D2E/DX2                !
 ! A19   A(2,11,12)            122.0211         estimate D2E/DX2                !
 ! A20   A(2,11,15)            119.5176         estimate D2E/DX2                !
 ! A21   A(12,11,15)           118.4613         estimate D2E/DX2                !
 ! A22   A(11,12,13)           118.3719         estimate D2E/DX2                !
 ! A23   A(11,12,17)           122.1394         estimate D2E/DX2                !
 ! A24   A(13,12,17)           119.4887         estimate D2E/DX2                !
 ! A25   A(12,13,14)           118.371          estimate D2E/DX2                !
 ! A26   A(12,13,20)           119.4899         estimate D2E/DX2                !
 ! A27   A(14,13,20)           122.1391         estimate D2E/DX2                !
 ! A28   A(3,14,13)            122.0211         estimate D2E/DX2                !
 ! A29   A(3,14,16)            119.5173         estimate D2E/DX2                !
 ! A30   A(13,14,16)           118.4616         estimate D2E/DX2                !
 ! A31   A(12,17,18)           122.1716         estimate D2E/DX2                !
 ! A32   A(12,17,21)           119.3705         estimate D2E/DX2                !
 ! A33   A(18,17,21)           118.4578         estimate D2E/DX2                !
 ! A34   A(17,18,19)           118.3394         estimate D2E/DX2                !
 ! A35   A(17,18,23)           122.0201         estimate D2E/DX2                !
 ! A36   A(19,18,23)           119.6344         estimate D2E/DX2                !
 ! A37   A(18,19,20)           118.3382         estimate D2E/DX2                !
 ! A38   A(18,19,24)           119.6357         estimate D2E/DX2                !
 ! A39   A(20,19,24)           122.02           estimate D2E/DX2                !
 ! A40   A(13,20,19)           122.1716         estimate D2E/DX2                !
 ! A41   A(13,20,22)           119.3701         estimate D2E/DX2                !
 ! A42   A(19,20,22)           118.4582         estimate D2E/DX2                !
 ! A43   A(18,23,25)           119.403          estimate D2E/DX2                !
 ! A44   A(18,23,36)           122.1438         estimate D2E/DX2                !
 ! A45   A(25,23,36)           118.3998         estimate D2E/DX2                !
 ! A46   A(19,24,26)           119.4049         estimate D2E/DX2                !
 ! A47   A(19,24,35)           122.1432         estimate D2E/DX2                !
 ! A48   A(26,24,35)           118.3984         estimate D2E/DX2                !
 ! A49   A(28,27,31)           120.047          estimate D2E/DX2                !
 ! A50   A(28,27,36)           120.2379         estimate D2E/DX2                !
 ! A51   A(31,27,36)           119.3139         estimate D2E/DX2                !
 ! A52   A(27,28,29)           110.8403         estimate D2E/DX2                !
 ! A53   A(27,28,32)           108.2388         estimate D2E/DX2                !
 ! A54   A(27,28,38)           111.5526         estimate D2E/DX2                !
 ! A55   A(29,28,32)           109.1928         estimate D2E/DX2                !
 ! A56   A(29,28,38)           110.8132         estimate D2E/DX2                !
 ! A57   A(32,28,38)           106.0306         estimate D2E/DX2                !
 ! A58   A(28,29,30)           110.8289         estimate D2E/DX2                !
 ! A59   A(28,29,33)           110.8055         estimate D2E/DX2                !
 ! A60   A(28,29,37)           109.2208         estimate D2E/DX2                !
 ! A61   A(30,29,33)           111.5511         estimate D2E/DX2                !
 ! A62   A(30,29,37)           108.247          estimate D2E/DX2                !
 ! A63   A(33,29,37)           106.0164         estimate D2E/DX2                !
 ! A64   A(29,30,34)           120.041          estimate D2E/DX2                !
 ! A65   A(29,30,35)           120.2409         estimate D2E/DX2                !
 ! A66   A(34,30,35)           119.3185         estimate D2E/DX2                !
 ! A67   A(24,35,30)           122.5048         estimate D2E/DX2                !
 ! A68   A(24,35,36)           118.058          estimate D2E/DX2                !
 ! A69   A(30,35,36)           119.3357         estimate D2E/DX2                !
 ! A70   A(23,36,27)           122.5058         estimate D2E/DX2                !
 ! A71   A(23,36,35)           118.0572         estimate D2E/DX2                !
 ! A72   A(27,36,35)           119.3359         estimate D2E/DX2                !
 ! D1    D(6,1,2,3)             -0.0785         estimate D2E/DX2                !
 ! D2    D(6,1,2,11)           179.9401         estimate D2E/DX2                !
 ! D3    D(7,1,2,3)            179.9246         estimate D2E/DX2                !
 ! D4    D(7,1,2,11)            -0.0568         estimate D2E/DX2                !
 ! D5    D(2,1,6,5)              0.0178         estimate D2E/DX2                !
 ! D6    D(2,1,6,10)          -179.993          estimate D2E/DX2                !
 ! D7    D(7,1,6,5)           -179.9854         estimate D2E/DX2                !
 ! D8    D(7,1,6,10)             0.0037         estimate D2E/DX2                !
 ! D9    D(1,2,3,4)              0.1068         estimate D2E/DX2                !
 ! D10   D(1,2,3,14)          -179.9106         estimate D2E/DX2                !
 ! D11   D(11,2,3,4)          -179.9114         estimate D2E/DX2                !
 ! D12   D(11,2,3,14)            0.0713         estimate D2E/DX2                !
 ! D13   D(1,2,11,12)          179.9774         estimate D2E/DX2                !
 ! D14   D(1,2,11,15)           -0.0089         estimate D2E/DX2                !
 ! D15   D(3,2,11,12)           -0.0038         estimate D2E/DX2                !
 ! D16   D(3,2,11,15)         -179.99           estimate D2E/DX2                !
 ! D17   D(2,3,4,5)             -0.0786         estimate D2E/DX2                !
 ! D18   D(2,3,4,8)            179.9258         estimate D2E/DX2                !
 ! D19   D(14,3,4,5)           179.9392         estimate D2E/DX2                !
 ! D20   D(14,3,4,8)            -0.0564         estimate D2E/DX2                !
 ! D21   D(2,3,14,13)           -0.0019         estimate D2E/DX2                !
 ! D22   D(2,3,14,16)         -179.9902         estimate D2E/DX2                !
 ! D23   D(4,3,14,13)          179.9801         estimate D2E/DX2                !
 ! D24   D(4,3,14,16)           -0.0083         estimate D2E/DX2                !
 ! D25   D(3,4,5,6)              0.0179         estimate D2E/DX2                !
 ! D26   D(3,4,5,9)           -179.9927         estimate D2E/DX2                !
 ! D27   D(8,4,5,6)           -179.9867         estimate D2E/DX2                !
 ! D28   D(8,4,5,9)              0.0028         estimate D2E/DX2                !
 ! D29   D(4,5,6,1)              0.0142         estimate D2E/DX2                !
 ! D30   D(4,5,6,10)          -179.975          estimate D2E/DX2                !
 ! D31   D(9,5,6,1)           -179.9753         estimate D2E/DX2                !
 ! D32   D(9,5,6,10)             0.0354         estimate D2E/DX2                !
 ! D33   D(2,11,12,13)          -0.1265         estimate D2E/DX2                !
 ! D34   D(2,11,12,17)         179.9138         estimate D2E/DX2                !
 ! D35   D(15,11,12,13)        179.8598         estimate D2E/DX2                !
 ! D36   D(15,11,12,17)         -0.0999         estimate D2E/DX2                !
 ! D37   D(11,12,13,14)          0.1897         estimate D2E/DX2                !
 ! D38   D(11,12,13,20)       -179.8501         estimate D2E/DX2                !
 ! D39   D(17,12,13,14)       -179.8495         estimate D2E/DX2                !
 ! D40   D(17,12,13,20)          0.1107         estimate D2E/DX2                !
 ! D41   D(11,12,17,18)        179.9586         estimate D2E/DX2                !
 ! D42   D(11,12,17,21)          0.0724         estimate D2E/DX2                !
 ! D43   D(13,12,17,18)         -0.0007         estimate D2E/DX2                !
 ! D44   D(13,12,17,21)       -179.8869         estimate D2E/DX2                !
 ! D45   D(12,13,14,3)          -0.1284         estimate D2E/DX2                !
 ! D46   D(12,13,14,16)        179.86           estimate D2E/DX2                !
 ! D47   D(20,13,14,3)         179.9125         estimate D2E/DX2                !
 ! D48   D(20,13,14,16)         -0.0991         estimate D2E/DX2                !
 ! D49   D(12,13,20,19)         -0.0052         estimate D2E/DX2                !
 ! D50   D(12,13,20,22)       -179.8854         estimate D2E/DX2                !
 ! D51   D(14,13,20,19)        179.9534         estimate D2E/DX2                !
 ! D52   D(14,13,20,22)          0.0733         estimate D2E/DX2                !
 ! D53   D(12,17,18,19)         -0.2035         estimate D2E/DX2                !
 ! D54   D(12,17,18,23)       -179.2989         estimate D2E/DX2                !
 ! D55   D(21,17,18,19)        179.6836         estimate D2E/DX2                !
 ! D56   D(21,17,18,23)          0.5882         estimate D2E/DX2                !
 ! D57   D(17,18,19,20)          0.2988         estimate D2E/DX2                !
 ! D58   D(17,18,19,24)        179.4179         estimate D2E/DX2                !
 ! D59   D(23,18,19,20)        179.4164         estimate D2E/DX2                !
 ! D60   D(23,18,19,24)         -1.4645         estimate D2E/DX2                !
 ! D61   D(17,18,23,25)          1.0186         estimate D2E/DX2                !
 ! D62   D(17,18,23,36)        178.3175         estimate D2E/DX2                !
 ! D63   D(19,18,23,25)       -178.0654         estimate D2E/DX2                !
 ! D64   D(19,18,23,36)         -0.7665         estimate D2E/DX2                !
 ! D65   D(18,19,20,13)         -0.199          estimate D2E/DX2                !
 ! D66   D(18,19,20,22)        179.6821         estimate D2E/DX2                !
 ! D67   D(24,19,20,13)       -179.2959         estimate D2E/DX2                !
 ! D68   D(24,19,20,22)          0.5853         estimate D2E/DX2                !
 ! D69   D(18,19,24,26)       -178.0811         estimate D2E/DX2                !
 ! D70   D(18,19,24,35)         -0.7852         estimate D2E/DX2                !
 ! D71   D(20,19,24,26)          1.0044         estimate D2E/DX2                !
 ! D72   D(20,19,24,35)        178.3003         estimate D2E/DX2                !
 ! D73   D(18,23,36,27)       -171.3649         estimate D2E/DX2                !
 ! D74   D(18,23,36,35)          4.951          estimate D2E/DX2                !
 ! D75   D(25,23,36,27)          5.9599         estimate D2E/DX2                !
 ! D76   D(25,23,36,35)       -177.7241         estimate D2E/DX2                !
 ! D77   D(19,24,35,30)       -171.3396         estimate D2E/DX2                !
 ! D78   D(19,24,35,36)          4.9695         estimate D2E/DX2                !
 ! D79   D(26,24,35,30)          5.9824         estimate D2E/DX2                !
 ! D80   D(26,24,35,36)       -177.7085         estimate D2E/DX2                !
 ! D81   D(31,27,28,29)       -151.646          estimate D2E/DX2                !
 ! D82   D(31,27,28,32)         88.6306         estimate D2E/DX2                !
 ! D83   D(31,27,28,38)        -27.6503         estimate D2E/DX2                !
 ! D84   D(36,27,28,29)         35.673          estimate D2E/DX2                !
 ! D85   D(36,27,28,32)        -84.0504         estimate D2E/DX2                !
 ! D86   D(36,27,28,38)        159.6687         estimate D2E/DX2                !
 ! D87   D(28,27,36,23)        172.6852         estimate D2E/DX2                !
 ! D88   D(28,27,36,35)         -3.5854         estimate D2E/DX2                !
 ! D89   D(31,27,36,23)         -0.0493         estimate D2E/DX2                !
 ! D90   D(31,27,36,35)       -176.3199         estimate D2E/DX2                !
 ! D91   D(27,28,29,30)        -49.6116         estimate D2E/DX2                !
 ! D92   D(27,28,29,33)       -174.0132         estimate D2E/DX2                !
 ! D93   D(27,28,29,37)         69.5597         estimate D2E/DX2                !
 ! D94   D(32,28,29,30)         69.539          estimate D2E/DX2                !
 ! D95   D(32,28,29,33)        -54.8626         estimate D2E/DX2                !
 ! D96   D(32,28,29,37)       -171.2897         estimate D2E/DX2                !
 ! D97   D(38,28,29,30)       -174.0289         estimate D2E/DX2                !
 ! D98   D(38,28,29,33)         61.5695         estimate D2E/DX2                !
 ! D99   D(38,28,29,37)        -54.8576         estimate D2E/DX2                !
 ! D100  D(28,29,30,34)       -151.623          estimate D2E/DX2                !
 ! D101  D(28,29,30,35)         35.6815         estimate D2E/DX2                !
 ! D102  D(33,29,30,34)        -27.6467         estimate D2E/DX2                !
 ! D103  D(33,29,30,35)        159.6578         estimate D2E/DX2                !
 ! D104  D(37,29,30,34)         88.6211         estimate D2E/DX2                !
 ! D105  D(37,29,30,35)        -84.0744         estimate D2E/DX2                !
 ! D106  D(29,30,35,24)        172.665          estimate D2E/DX2                !
 ! D107  D(29,30,35,36)         -3.5987         estimate D2E/DX2                !
 ! D108  D(34,30,35,24)         -0.0831         estimate D2E/DX2                !
 ! D109  D(34,30,35,36)       -176.3468         estimate D2E/DX2                !
 ! D110  D(24,35,36,23)         -6.9135         estimate D2E/DX2                !
 ! D111  D(24,35,36,27)        169.5227         estimate D2E/DX2                !
 ! D112  D(30,35,36,23)        169.516          estimate D2E/DX2                !
 ! D113  D(30,35,36,27)        -14.0477         estimate D2E/DX2                !
 --------------------------------------------------------------------------------
 Trust Radius=3.00D-01 FncErr=1.00D-07 GrdErr=1.00D-06
 Number of steps in this run=    228 maximum allowed number of steps=    228.
 GradGradGradGradGradGradGradGradGradGradGradGradGradGradGradGradGradGrad

                          Input orientation:                          
 ---------------------------------------------------------------------
 Center     Atomic      Atomic             Coordinates (Angstroms)
 Number     Number       Type             X           Y           Z
 ---------------------------------------------------------------------
      1          6           0        5.014515    1.408435    0.069652
      2          6           0        3.747828    0.728252    0.036620
      3          6           0        3.747814   -0.728260   -0.036502
      4          6           0        5.014498   -1.408466   -0.069403
      5          6           0        6.183946   -0.717755   -0.035172
      6          6           0        6.183956    0.717704    0.035541
      7          1           0        5.009501    2.501315    0.123250
      8          1           0        5.009474   -2.501346   -0.123022
      9          1           0        7.137817   -1.250713   -0.061084
     10          1           0        7.137834    1.250643    0.061546
     11          6           0        2.551375    1.407252    0.071383
     12          6           0        1.297771    0.731061    0.038063
     13          6           0        1.297754   -0.731030   -0.038272
     14          6           0        2.551359   -1.407243   -0.071405
     15          1           0        2.553095    2.501284    0.126140
     16          1           0        2.553076   -2.501275   -0.126165
     17          6           0        0.096248    1.409576    0.074566
     18          6           0       -1.156989    0.734537    0.040432
     19          6           0       -1.157006   -0.734484   -0.040887
     20          6           0        0.096233   -1.409532   -0.074942
     21          1           0        0.098517    2.503422    0.129786
     22          1           0        0.098508   -2.503380   -0.130137
     23          6           0       -2.354044    1.415391    0.062745
     24          6           0       -2.354063   -1.415333   -0.063306
     25          1           0       -2.349465    2.510335    0.091150
     26          1           0       -2.349522   -2.510266   -0.091972
     27          6           0       -4.796321    1.408060   -0.158516
     28          6           0       -6.063423    0.651712   -0.388674
     29          6           0       -6.063312   -0.651771    0.389539
     30          6           0       -4.796246   -1.408039    0.158642
     31          1           0       -4.789392    2.500436   -0.229575
     32          1           0       -6.143442    0.428211   -1.478045
     33          1           0       -6.947824   -1.257817    0.137720
     34          1           0       -4.789403   -2.500453    0.229262
     35          6           0       -3.615750   -0.740947    0.006767
     36          6           0       -3.615765    0.740987   -0.007045
     37          1           0       -6.143196   -0.428824    1.478961
     38          1           0       -6.947843    1.257800   -0.136779
 ---------------------------------------------------------------------
                    Distance matrix (angstroms):
                    1          2          3          4          5
     1  C    0.000000
     2  C    1.438136   0.000000
     3  C    2.486215   1.458346   0.000000
     4  C    2.820331   2.486214   1.438142   0.000000
     5  C    2.428835   2.833860   2.436155   1.358625   0.000000
     6  C    1.358626   2.436151   2.833865   2.428836   1.437200
     7  H    1.094205   2.177860   3.470955   3.914528   3.430281
     8  H    3.914529   3.470957   2.177867   1.094206   2.137358
     9  H    3.405374   3.926560   3.430114   2.129187   1.092971
    10  H    2.129189   3.430110   3.926564   3.405373   2.189486
    11  C    2.463141   1.376136   2.450208   3.743670   4.209820
    12  C    3.778097   2.450059   2.852698   4.289893   5.096973
    13  C    4.289903   2.852714   2.450062   3.778105   4.886211
    14  C    3.743672   2.450214   1.376133   2.463140   3.697620
    15  H    2.693715   2.139870   3.447283   4.624163   4.855030
    16  H    4.624160   3.447285   2.139865   2.693706   4.046287
    17  C    4.918270   3.714792   4.232802   5.670209   6.449624
    18  C    6.208257   4.904823   5.118866   6.533895   7.483595
    19  C    6.533911   5.118887   4.904826   6.208263   7.340973
    20  C    5.670215   4.232814   3.714788   4.918268   6.127021
    21  H    5.036829   4.059234   4.877375   6.285651   6.887354
    22  H    6.285645   4.877375   4.059218   5.036813   6.342715
    23  C    7.368566   6.140495   6.468212   7.892214   8.800976
    24  C    7.892229   6.468231   6.140496   7.368567   8.566505
    25  H    7.445995   6.352620   6.905187   8.343304   9.124452
    26  H    8.343344   6.905231   6.352647   7.446023   8.719885
    27  C    9.813489   8.573372   8.808007  10.207494  11.184836
    28  C   11.113208   9.820763   9.914067  11.272382  12.328765
    29  C   11.272312   9.914004   9.820670  11.113104  12.254798
    30  C   10.207423   8.807941   8.573281   9.813394  11.003575
    31  H    9.869073   8.723280   9.129383  10.555635  11.437163
    32  H   11.307352  10.011067  10.062426  11.395494  12.464334
    33  H   12.256063  10.878955  10.710157  11.965063  13.144008
    34  H   10.555647   9.129401   8.723266   9.869048  11.120356
    35  C    8.894114   7.508776   7.363702   8.656360   9.799813
    36  C    8.656391   7.363733   7.508785   8.894126   9.907727
    37  H   11.395446  10.062382  10.010912  11.307133  12.423144
    38  H   11.965087  10.710176  10.878951  12.256064  13.279948
                    6          7          8          9         10
     6  C    0.000000
     7  H    2.137359   0.000000
     8  H    3.430282   5.008719   0.000000
     9  H    2.189487   4.317571   2.469365   0.000000
    10  H    1.092970   2.469370   4.317569   2.504360   0.000000
    11  C    3.697622   2.691105   4.621383   5.302620   4.589143
    12  C    4.886204   4.113149   4.924545   6.167933   5.863178
    13  C    5.096984   4.924552   4.113158   5.863184   6.167943
    14  C    4.209822   4.621383   2.691107   4.589140   5.302621
    15  H    4.046297   2.456408   5.578726   5.927243   4.752695
    16  H    4.855025   5.578722   2.456400   4.752682   5.927236
    17  C    6.127022   5.033321   6.282845   7.528561   7.043391
    18  C    7.340966   6.415135   6.965840   8.529673   8.310890
    19  C    7.483610   6.965856   6.415140   8.310896   8.529689
    20  C    6.449629   6.282850   5.033320   7.043388   7.528566
    21  H    6.342731   4.910989   7.016346   7.980082   7.150251
    22  H    6.887344   7.016340   4.910972   7.150232   7.980072
    23  C    8.566502   7.443432   8.342466   9.859963   9.493308
    24  C    8.800988   8.342482   7.443431   9.493308   9.859976
    25  H    8.719856   7.359042   8.905998  10.206722   9.570608
    26  H    9.124489   8.906036   7.359067   9.570634  10.206759
    27  C   11.003669   9.870600  10.556436  12.227110  11.937222
    28  C   12.254901  11.238004  11.516136  13.341637  13.222504
    29  C   12.328680  11.516078  11.237893  13.222390  13.341552
    30  C   11.184756  10.556371   9.870501  11.937122  12.227031
    31  H   11.120377   9.805243  11.002134  12.504312  11.996060
    32  H   12.423345  11.456441  11.610595  13.461739  13.395485
    33  H   13.279939  12.534309  12.024613  14.087046  14.307478
    34  H   11.437162  11.002156   9.805208  11.996030  12.504313
    35  C    9.907711   9.215247   8.803996  10.765857  10.936590
    36  C    9.799841   8.804030   9.215255  10.936604  10.765888
    37  H   12.464215  11.610612  11.456166  13.395243  13.461628
    38  H   13.144031  12.024642  12.534305  14.307487  14.087075
                   11         12         13         14         15
    11  C    0.000000
    12  C    1.424734   0.000000
    13  C    2.481096   1.464082   0.000000
    14  C    2.818115   2.481091   1.424741   0.000000
    15  H    1.095403   2.171931   3.471421   3.913516   0.000000
    16  H    3.913517   3.471420   2.171941   1.095403   5.008917
    17  C    2.455130   1.380352   2.457345   3.739431   2.688974
    18  C    3.769014   2.454764   2.860043   4.283874   4.110166
    19  C    4.283892   2.860067   2.454764   3.769019   4.925743
    20  C    3.739439   2.457357   1.380349   2.455130   4.622887
    21  H    2.687287   2.141935   3.453707   4.620629   2.454582
    22  H    4.620629   3.453713   2.141928   2.687274   5.580084
    23  C    4.905433   3.715464   4.237093   5.661116   5.026251
    24  C    5.661135   4.237119   3.715463   4.905435   6.281399
    25  H    5.023486   4.058444   4.881127   6.276298   4.902693
    26  H    6.276338   4.881174   4.058471   5.023516   7.014190
    27  C    7.351292   6.134731   6.459715   7.869048   7.435730
    28  C    8.660095   7.373980   7.498112   8.863093   8.827816
    29  C    8.863049   7.498087   7.373913   8.660009   9.178976
    30  C    7.868991   6.459670   6.134652   7.351205   8.324462
    31  H    7.427818   6.344751   6.894368   8.317548   7.351099
    32  H    8.885893   7.600128   7.667345   8.997060   9.082995
    33  H    9.866194   8.482653   8.264262   9.502660  10.217555
    34  H    8.317578   6.894413   6.344755   7.427806   8.884834
    35  C    6.530878   5.129374   4.913720   6.203491   6.970004
    36  C    6.203521   4.913753   5.129374   6.530885   6.416480
    37  H    8.997112   7.667432   7.600070   8.885732   9.275836
    38  H    9.502674   8.264271   8.482630   9.866183   9.585573
                   16         17         18         19         20
    16  H    0.000000
    17  C    4.622884   0.000000
    18  C    4.925730   1.423884   0.000000
    19  C    4.110174   2.486155   1.471270   0.000000
    20  C    2.688978   2.823070   2.486143   1.423888   0.000000
    21  H    5.580086   1.095241   2.170998   3.476996   3.918307
    22  H    2.454572   3.918307   3.476992   2.171008   1.095242
    23  C    6.281384   2.450327   1.377316   2.462844   3.742059
    24  C    5.026255   3.742077   2.462862   1.377317   2.450330
    25  H    7.014155   2.682062   2.139633   3.459515   4.623244
    26  H    4.902725   4.623277   3.459539   2.139651   2.682093
    27  C    8.324517   4.898118   3.706474   4.224801   5.646494
    28  C    9.179014   6.223383   4.925859   5.110325   6.502962
    29  C    8.827727   6.502964   5.110355   4.925845   6.223338
    30  C    7.435645   5.646461   4.224784   3.706421   4.898052
    31  H    8.884798   5.015173   4.047920   4.867704   6.259480
    32  H    9.275715   6.504415   5.221525   5.318066   6.654287
    33  H    9.585558   7.532458   6.124762   5.817160   7.048899
    34  H    7.351077   6.259540   4.867777   4.047954   5.015186
    35  C    6.416451   4.290487   2.867698   2.459214   3.772599
    36  C    6.970011   3.772627   2.459243   2.867692   4.290486
    37  H    9.082766   6.654525   5.318368   5.221634   6.504374
    38  H   10.217545   7.048895   5.817147   6.124719   7.532429
                   21         22         23         24         25
    21  H    0.000000
    22  H    5.013544   0.000000
    23  C    2.683908   4.626984   0.000000
    24  C    4.626994   2.683918   2.833529   0.000000
    25  H    2.448297   5.583805   1.095322   3.928708   0.000000
    26  H    5.583828   2.448337   3.928707   1.095318   5.023939
    27  C    5.024179   6.265742   2.452290   3.734332   2.695264
    28  C    6.455009   6.927542   3.813984   4.258860   4.180693
    29  C    6.927543   6.454963   4.258946   3.814004   4.886779
    30  C    6.265705   5.024120   3.734341   2.452259   4.620059
    31  H    4.901102   6.995686   2.682106   4.614295   2.460936
    32  H    6.771534   7.026594   4.208099   4.445170   4.603463
    33  H    7.987359   7.160584   5.315494   4.600855   5.945254
    34  H    6.995743   4.901107   4.614384   2.682156   5.574977
    35  C    4.933239   4.113469   2.498966   1.432327   3.490191
    36  C    4.113489   4.933244   1.432352   2.498954   2.178015
    37  H    7.026900   6.771399   4.445725   4.208244   4.995705
    38  H    7.160574   7.987339   4.600830   5.315435   4.771360
                   26         27         28         29         30
    26  H    0.000000
    27  C    4.620014   0.000000
    28  C    4.886635   1.493513   0.000000
    29  C    4.180681   2.479624   1.518118   0.000000
    30  C    2.695212   2.833902   2.479489   1.493556   0.000000
    31  H    5.574857   1.094707   2.250833   3.455804   3.927714
    32  H    4.994965   2.125087   1.114937   2.158854   2.804549
    33  H    4.771349   3.438549   2.169230   1.101393   2.156917
    34  H    2.460956   3.927708   3.455592   2.250813   1.094716
    35  C    2.177974   2.457498   2.843761   2.478916   1.364422
    36  C    3.490162   1.364420   2.478839   2.843860   2.457499
    37  H    4.603498   2.805271   2.159162   1.114866   2.125177
    38  H    5.945156   2.156872   1.101359   2.169301   3.438509
                   31         32         33         34         35
    31  H    0.000000
    32  H    2.772408   0.000000
    33  H    4.349506   2.469902   0.000000
    34  H    5.021894   3.650396   2.492249   0.000000
    35  C    3.455410   3.156077   3.374466   2.126694   0.000000
    36  C    2.126636   2.941228   3.888289   3.455460   1.481998
    37  H    3.651362   3.078700   1.770193   2.772391   2.941557
    38  H    2.492321   1.770388   2.530549   4.349404   3.888244
                   36         37         38
    36  C    0.000000
    37  H    3.156672   0.000000
    38  H    3.374414   2.470379   0.000000
 Stoichiometry    C22H16
 Framework group  C1[X(C22H16)]
 Deg. of freedom   108
 Full point group                 C1      NOp   1
 Largest Abelian subgroup         C1      NOp   1
 Largest concise Abelian subgroup C1      NOp   1
                         Standard orientation:                         
 ---------------------------------------------------------------------
 Center     Atomic      Atomic             Coordinates (Angstroms)
 Number     Number       Type             X           Y           Z
 ---------------------------------------------------------------------
      1          6           0        5.014515    1.408435    0.069652
      2          6           0        3.747828    0.728252    0.036620
      3          6           0        3.747814   -0.728260   -0.036502
      4          6           0        5.014498   -1.408466   -0.069403
      5          6           0        6.183946   -0.717755   -0.035172
      6          6           0        6.183956    0.717704    0.035541
      7          1           0        5.009501    2.501315    0.123250
      8          1           0        5.009474   -2.501346   -0.123022
      9          1           0        7.137817   -1.250713   -0.061084
     10          1           0        7.137834    1.250643    0.061546
     11          6           0        2.551375    1.407252    0.071383
     12          6           0        1.297771    0.731061    0.038063
     13          6           0        1.297754   -0.731030   -0.038272
     14          6           0        2.551359   -1.407243   -0.071405
     15          1           0        2.553095    2.501284    0.126140
     16          1           0        2.553076   -2.501275   -0.126165
     17          6           0        0.096248    1.409576    0.074566
     18          6           0       -1.156989    0.734537    0.040432
     19          6           0       -1.157006   -0.734484   -0.040887
     20          6           0        0.096233   -1.409532   -0.074942
     21          1           0        0.098517    2.503422    0.129786
     22          1           0        0.098508   -2.503380   -0.130137
     23          6           0       -2.354044    1.415391    0.062745
     24          6           0       -2.354063   -1.415333   -0.063306
     25          1           0       -2.349465    2.510335    0.091150
     26          1           0       -2.349522   -2.510266   -0.091972
     27          6           0       -4.796321    1.408060   -0.158516
     28          6           0       -6.063423    0.651712   -0.388674
     29          6           0       -6.063312   -0.651771    0.389539
     30          6           0       -4.796246   -1.408039    0.158642
     31          1           0       -4.789392    2.500436   -0.229575
     32          1           0       -6.143442    0.428211   -1.478045
     33          1           0       -6.947824   -1.257817    0.137720
     34          1           0       -4.789403   -2.500453    0.229262
     35          6           0       -3.615750   -0.740947    0.006767
     36          6           0       -3.615765    0.740987   -0.007045
     37          1           0       -6.143196   -0.428824    1.478961
     38          1           0       -6.947843    1.257800   -0.136779
 ---------------------------------------------------------------------
 Rotational constants (GHZ):      1.2888891      0.1155187      0.1064417
 Standard basis: CC-pVTZ (5D, 7F)
 There are  1010 symmetry adapted cartesian basis functions of A   symmetry.
 There are   884 symmetry adapted basis functions of A   symmetry.
   884 basis functions,  1416 primitive gaussians,  1010 cartesian basis functions
    74 alpha electrons       74 beta electrons
       nuclear repulsion energy      1524.5832365085 Hartrees.
 NAtoms=   38 NActive=   38 NUniq=   38 SFac= 1.00D+00 NAtFMM=   60 NAOKFM=F Big=F
 Integral buffers will be    131072 words long.
 Raffenetti 2 integral format.
 Two-electron integral symmetry is turned on.
 One-electron integrals computed using PRISM.
 NBasis=   884 RedAO= T EigKep=  9.86D-06  NBF=   884
 NBsUse=   884 1.00D-06 EigRej= -1.00D+00 NBFU=   884
 ExpMin= 1.03D-01 ExpMax= 8.24D+03 ExpMxC= 2.81D+02 IAcc=1 IRadAn=         1 AccDes= 0.00D+00
 Harris functional with IExCor= 1009 and IRadAn=       1 diagonalized for initial guess.
 HarFok:  IExCor= 1009 AccDes= 0.00D+00 IRadAn=         1 IDoV= 1 UseB2=F ITyADJ=14
 ICtDFT=  3500011 ScaDFX=  1.000000  1.000000  1.000000  1.000000
 FoFCou: FMM=F IPFlag=           0 FMFlag=      100000 FMFlg1=           0
         NFxFlg=           0 DoJE=T BraDBF=F KetDBF=T FulRan=T
         wScrn=  0.000000 ICntrl=     500 IOpCl=  0 I1Cent=   200000004 NGrid=           0
         NMat0=    1 NMatS0=      1 NMatT0=    0 NMatD0=    1 NMtDS0=    0 NMtDT0=    0
 Petite list used in FoFCou.
 Requested convergence on RMS density matrix=1.00D-08 within 128 cycles.
 Requested convergence on MAX density matrix=1.00D-06.
 Requested convergence on             energy=1.00D-06.
 No special actions if energy rises.
 Integral accuracy reduced to 1.0D-05 until final iterations.
 Initial convergence to 1.0D-05 achieved.  Increase integral accuracy.
 SCF Done:  E(RM06) =  -847.518037381     A.U. after   20 cycles
            NFock= 20  Conv=0.40D-08     -V/T= 2.0082

 **********************************************************************

            Population analysis using the SCF density.

 **********************************************************************

 Orbital symmetries:
       Occupied  (A) (A) (A) (A) (A) (A) (A) (A) (A) (A) (A) (A)
                 (A) (A) (A) (A) (A) (A) (A) (A) (A) (A) (A) (A)
                 (A) (A) (A) (A) (A) (A) (A) (A) (A) (A) (A) (A)
                 (A) (A) (A) (A) (A) (A) (A) (A) (A) (A) (A) (A)
                 (A) (A) (A) (A) (A) (A) (A) (A) (A) (A) (A) (A)
                 (A) (A) (A) (A) (A) (A) (A) (A) (A) (A) (A) (A)
                 (A) (A)
       Virtual   (A) (A) (A) (A) (A) (A) (A) (A) (A) (A) (A) (A)
                 (A) (A) (A) (A) (A) (A) (A) (A) (A) (A) (A) (A)
                 (A) (A) (A) (A) (A) (A) (A) (A) (A) (A) (A) (A)
                 (A) (A) (A) (A) (A) (A) (A) (A) (A) (A) (A) (A)
                 (A) (A) (A) (A) (A) (A) (A) (A) (A) (A) (A) (A)
                 (A) (A) (A) (A) (A) (A) (A) (A) (A) (A) (A) (A)
                 (A) (A) (A) (A) (A) (A) (A) (A) (A) (A) (A) (A)
                 (A) (A) (A) (A) (A) (A) (A) (A) (A) (A) (A) (A)
                 (A) (A) (A) (A) (A) (A) (A) (A) (A) (A) (A) (A)
                 (A) (A) (A) (A) (A) (A) (A) (A) (A) (A) (A) (A)
                 (A) (A) (A) (A) (A) (A) (A) (A) (A) (A) (A) (A)
                 (A) (A) (A) (A) (A) (A) (A) (A) (A) (A) (A) (A)
                 (A) (A) (A) (A) (A) (A) (A) (A) (A) (A) (A) (A)
                 (A) (A) (A) (A) (A) (A) (A) (A) (A) (A) (A) (A)
                 (A) (A) (A) (A) (A) (A) (A) (A) (A) (A) (A) (A)
                 (A) (A) (A) (A) (A) (A) (A) (A) (A) (A) (A) (A)
                 (A) (A) (A) (A) (A) (A) (A) (A) (A) (A) (A) (A)
                 (A) (A) (A) (A) (A) (A) (A) (A) (A) (A) (A) (A)
                 (A) (A) (A) (A) (A) (A) (A) (A) (A) (A) (A) (A)
                 (A) (A) (A) (A) (A) (A) (A) (A) (A) (A) (A) (A)
                 (A) (A) (A) (A) (A) (A) (A) (A) (A) (A) (A) (A)
                 (A) (A) (A) (A) (A) (A) (A) (A) (A) (A) (A) (A)
                 (A) (A) (A) (A) (A) (A) (A) (A) (A) (A) (A) (A)
                 (A) (A) (A) (A) (A) (A) (A) (A) (A) (A) (A) (A)
                 (A) (A) (A) (A) (A) (A) (A) (A) (A) (A) (A) (A)
                 (A) (A) (A) (A) (A) (A) (A) (A) (A) (A) (A) (A)
                 (A) (A) (A) (A) (A) (A) (A) (A) (A) (A) (A) (A)
                 (A) (A) (A) (A) (A) (A) (A) (A) (A) (A) (A) (A)
                 (A) (A) (A) (A) (A) (A) (A) (A) (A) (A) (A) (A)
                 (A) (A) (A) (A) (A) (A) (A) (A) (A) (A) (A) (A)
                 (A) (A) (A) (A) (A) (A) (A) (A) (A) (A) (A) (A)
                 (A) (A) (A) (A) (A) (A) (A) (A) (A) (A) (A) (A)
                 (A) (A) (A) (A) (A) (A) (A) (A) (A) (A) (A) (A)
                 (A) (A) (A) (A) (A) (A) (A) (A) (A) (A) (A) (A)
                 (A) (A) (A) (A) (A) (A) (A) (A) (A) (A) (A) (A)
                 (A) (A) (A) (A) (A) (A) (A) (A) (A) (A) (A) (A)
                 (A) (A) (A) (A) (A) (A) (A) (A) (A) (A) (A) (A)
                 (A) (A) (A) (A) (A) (A) (A) (A) (A) (A) (A) (A)
                 (A) (A) (A) (A) (A) (A) (A) (A) (A) (A) (A) (A)
                 (A) (A) (A) (A) (A) (A) (A) (A) (A) (A) (A) (A)
                 (A) (A) (A) (A) (A) (A) (A) (A) (A) (A) (A) (A)
                 (A) (A) (A) (A) (A) (A) (A) (A) (A) (A) (A) (A)
                 (A) (A) (A) (A) (A) (A) (A) (A) (A) (A) (A) (A)
                 (A) (A) (A) (A) (A) (A) (A) (A) (A) (A) (A) (A)
                 (A) (A) (A) (A) (A) (A) (A) (A) (A) (A) (A) (A)
                 (A) (A) (A) (A) (A) (A) (A) (A) (A) (A) (A) (A)
                 (A) (A) (A) (A) (A) (A) (A) (A) (A) (A) (A) (A)
                 (A) (A) (A) (A) (A) (A) (A) (A) (A) (A) (A) (A)
                 (A) (A) (A) (A) (A) (A) (A) (A) (A) (A) (A) (A)
                 (A) (A) (A) (A) (A) (A) (A) (A) (A) (A) (A) (A)
                 (A) (A) (A) (A) (A) (A) (A) (A) (A) (A) (A) (A)
                 (A) (A) (A) (A) (A) (A) (A) (A) (A) (A) (A) (A)
                 (A) (A) (A) (A) (A) (A) (A) (A) (A) (A) (A) (A)
                 (A) (A) (A) (A) (A) (A) (A) (A) (A) (A) (A) (A)
                 (A) (A) (A) (A) (A) (A) (A) (A) (A) (A) (A) (A)
                 (A) (A) (A) (A) (A) (A) (A) (A) (A) (A) (A) (A)
                 (A) (A) (A) (A) (A) (A) (A) (A) (A) (A) (A) (A)
                 (A) (A) (A) (A) (A) (A) (A) (A) (A) (A) (A) (A)
                 (A) (A) (A) (A) (A) (A) (A) (A) (A) (A) (A) (A)
                 (A) (A) (A) (A) (A) (A) (A) (A) (A) (A) (A) (A)
                 (A) (A) (A) (A) (A) (A) (A) (A) (A) (A) (A) (A)
                 (A) (A) (A) (A) (A) (A) (A) (A) (A) (A) (A) (A)
                 (A) (A) (A) (A) (A) (A) (A) (A) (A) (A) (A) (A)
                 (A) (A) (A) (A) (A) (A) (A) (A) (A) (A) (A) (A)
                 (A) (A) (A) (A) (A) (A) (A) (A) (A) (A) (A) (A)
                 (A) (A) (A) (A) (A) (A) (A) (A) (A) (A) (A) (A)
                 (A) (A) (A) (A) (A) (A) (A) (A) (A) (A) (A) (A)
                 (A) (A) (A) (A) (A) (A)
 The electronic state is 1-A.
 Alpha  occ. eigenvalues --  -10.25722 -10.25689 -10.25684 -10.25667 -10.25648
 Alpha  occ. eigenvalues --  -10.25630 -10.25409 -10.25374 -10.24948 -10.24920
 Alpha  occ. eigenvalues --  -10.24776 -10.24768 -10.24765 -10.24751 -10.24738
 Alpha  occ. eigenvalues --  -10.24733 -10.24730 -10.24726 -10.24694 -10.24690
 Alpha  occ. eigenvalues --  -10.24689 -10.24672  -0.89826  -0.88324  -0.86038
 Alpha  occ. eigenvalues --   -0.82901  -0.80422  -0.78973  -0.78878  -0.76493
 Alpha  occ. eigenvalues --   -0.75155  -0.73311  -0.69397  -0.68292  -0.63793
 Alpha  occ. eigenvalues --   -0.62835  -0.61346  -0.60130  -0.59293  -0.59253
 Alpha  occ. eigenvalues --   -0.53767  -0.52950  -0.52676  -0.49448  -0.49225
 Alpha  occ. eigenvalues --   -0.48363  -0.46803  -0.46295  -0.45298  -0.45162
 Alpha  occ. eigenvalues --   -0.43751  -0.43475  -0.42693  -0.42027  -0.41866
 Alpha  occ. eigenvalues --   -0.41452  -0.40881  -0.40561  -0.39381  -0.38805
 Alpha  occ. eigenvalues --   -0.37795  -0.36464  -0.35740  -0.35397  -0.34385
 Alpha  occ. eigenvalues --   -0.33806  -0.32983  -0.32344  -0.31201  -0.29953
 Alpha  occ. eigenvalues --   -0.26337  -0.26288  -0.21560  -0.16293
 Alpha virt. eigenvalues --   -0.10778  -0.05085  -0.00316  -0.00125   0.02746
 Alpha virt. eigenvalues --    0.03631   0.03818   0.03889   0.04317   0.04965
 Alpha virt. eigenvalues --    0.05708   0.05865   0.06745   0.06924   0.08212
 Alpha virt. eigenvalues --    0.08217   0.08459   0.09892   0.09922   0.11032
 Alpha virt. eigenvalues --    0.12398   0.13025   0.13883   0.15950   0.16854
 Alpha virt. eigenvalues --    0.16862   0.17637   0.19383   0.20604   0.20900
 Alpha virt. eigenvalues --    0.21285   0.22306   0.23151   0.23684   0.24390
 Alpha virt. eigenvalues --    0.25098   0.25581   0.25595   0.26180   0.26208
 Alpha virt. eigenvalues --    0.27190   0.27250   0.27854   0.28049   0.28133
 Alpha virt. eigenvalues --    0.28544   0.28865   0.29938   0.30085   0.30468
 Alpha virt. eigenvalues --    0.31122   0.31196   0.31450   0.32065   0.32114
 Alpha virt. eigenvalues --    0.32462   0.32921   0.33375   0.33730   0.33975
 Alpha virt. eigenvalues --    0.34311   0.34346   0.34735   0.35291   0.35436
 Alpha virt. eigenvalues --    0.35787   0.36687   0.36961   0.37001   0.37370
 Alpha virt. eigenvalues --    0.37954   0.38647   0.38816   0.39015   0.39235
 Alpha virt. eigenvalues --    0.39378   0.40116   0.40222   0.41098   0.41235
 Alpha virt. eigenvalues --    0.41650   0.41992   0.42098   0.42483   0.43171
 Alpha virt. eigenvalues --    0.43316   0.43526   0.43674   0.43789   0.44004
 Alpha virt. eigenvalues --    0.44682   0.45217   0.45248   0.46016   0.46079
 Alpha virt. eigenvalues --    0.46952   0.47219   0.48133   0.48777   0.48865
 Alpha virt. eigenvalues --    0.50003   0.50602   0.51179   0.51859   0.51904
 Alpha virt. eigenvalues --    0.52771   0.53347   0.54116   0.54565   0.55031
 Alpha virt. eigenvalues --    0.56376   0.57021   0.57099   0.57385   0.58648
 Alpha virt. eigenvalues --    0.58653   0.59957   0.60550   0.61466   0.61665
 Alpha virt. eigenvalues --    0.63047   0.64174   0.64527   0.65365   0.65526
 Alpha virt. eigenvalues --    0.65884   0.67067   0.67473   0.67548   0.68340
 Alpha virt. eigenvalues --    0.68529   0.68729   0.69426   0.70091   0.71464
 Alpha virt. eigenvalues --    0.71951   0.72205   0.73194   0.73929   0.74322
 Alpha virt. eigenvalues --    0.74983   0.74989   0.75412   0.76085   0.76675
 Alpha virt. eigenvalues --    0.76909   0.78117   0.78277   0.78393   0.78772
 Alpha virt. eigenvalues --    0.79853   0.80041   0.80318   0.80651   0.82010
 Alpha virt. eigenvalues --    0.82719   0.82777   0.83273   0.83733   0.84402
 Alpha virt. eigenvalues --    0.84667   0.85308   0.86807   0.87210   0.87736
 Alpha virt. eigenvalues --    0.87891   0.88612   0.89512   0.90470   0.90477
 Alpha virt. eigenvalues --    0.91393   0.91430   0.92122   0.92698   0.93747
 Alpha virt. eigenvalues --    0.93965   0.94887   0.94973   0.96922   0.97496
 Alpha virt. eigenvalues --    0.97713   0.97969   0.98356   0.98663   0.98922
 Alpha virt. eigenvalues --    0.99290   1.00261   1.00611   1.00950   1.01133
 Alpha virt. eigenvalues --    1.01993   1.02468   1.02537   1.03476   1.04212
 Alpha virt. eigenvalues --    1.04731   1.05003   1.06217   1.06813   1.07231
 Alpha virt. eigenvalues --    1.07363   1.08589   1.09285   1.09313   1.10046
 Alpha virt. eigenvalues --    1.10942   1.11353   1.12206   1.12820   1.13293
 Alpha virt. eigenvalues --    1.13824   1.14585   1.14689   1.15666   1.16010
 Alpha virt. eigenvalues --    1.16061   1.16402   1.18078   1.18188   1.19253
 Alpha virt. eigenvalues --    1.20234   1.20562   1.21504   1.22014   1.22976
 Alpha virt. eigenvalues --    1.23023   1.23219   1.23463   1.24420   1.25185
 Alpha virt. eigenvalues --    1.25591   1.26136   1.26691   1.26911   1.28050
 Alpha virt. eigenvalues --    1.28192   1.28567   1.29118   1.29333   1.30391
 Alpha virt. eigenvalues --    1.30454   1.31054   1.31522   1.31667   1.32196
 Alpha virt. eigenvalues --    1.33019   1.34314   1.34592   1.34702   1.34963
 Alpha virt. eigenvalues --    1.36268   1.36880   1.38074   1.38635   1.39239
 Alpha virt. eigenvalues --    1.39919   1.40475   1.41682   1.42421   1.42574
 Alpha virt. eigenvalues --    1.43966   1.44293   1.44907   1.45787   1.46294
 Alpha virt. eigenvalues --    1.47259   1.47474   1.47613   1.49649   1.50357
 Alpha virt. eigenvalues --    1.51367   1.52877   1.52978   1.55188   1.55618
 Alpha virt. eigenvalues --    1.57063   1.57106   1.58557   1.59839   1.62711
 Alpha virt. eigenvalues --    1.63557   1.65755   1.66406   1.69063   1.70048
 Alpha virt. eigenvalues --    1.70386   1.71361   1.72911   1.73067   1.73910
 Alpha virt. eigenvalues --    1.74625   1.74840   1.75389   1.77234   1.78533
 Alpha virt. eigenvalues --    1.78966   1.80751   1.82411   1.84472   1.85350
 Alpha virt. eigenvalues --    1.89359   1.91101   1.92075   1.95704   1.96499
 Alpha virt. eigenvalues --    1.97957   1.99207   2.00842   2.02159   2.05046
 Alpha virt. eigenvalues --    2.05744   2.06229   2.07134   2.09657   2.10945
 Alpha virt. eigenvalues --    2.11297   2.12057   2.13476   2.13480   2.14105
 Alpha virt. eigenvalues --    2.15894   2.16437   2.18477   2.19735   2.19867
 Alpha virt. eigenvalues --    2.21175   2.22490   2.23708   2.25004   2.26317
 Alpha virt. eigenvalues --    2.26421   2.27388   2.27985   2.29528   2.30739
 Alpha virt. eigenvalues --    2.32173   2.32614   2.33349   2.36243   2.36384
 Alpha virt. eigenvalues --    2.36910   2.37002   2.38643   2.39195   2.39341
 Alpha virt. eigenvalues --    2.39761   2.39998   2.40945   2.42109   2.42913
 Alpha virt. eigenvalues --    2.43238   2.43677   2.44228   2.44442   2.44504
 Alpha virt. eigenvalues --    2.45168   2.45530   2.45764   2.46357   2.46616
 Alpha virt. eigenvalues --    2.46682   2.47084   2.47101   2.47608   2.47735
 Alpha virt. eigenvalues --    2.48364   2.50158   2.50353   2.51183   2.51796
 Alpha virt. eigenvalues --    2.51836   2.52143   2.54379   2.55280   2.55376
 Alpha virt. eigenvalues --    2.56379   2.56800   2.57562   2.58749   2.58876
 Alpha virt. eigenvalues --    2.59839   2.61070   2.61352   2.63562   2.64677
 Alpha virt. eigenvalues --    2.64924   2.65170   2.66277   2.66856   2.67518
 Alpha virt. eigenvalues --    2.67734   2.68565   2.69327   2.69869   2.69977
 Alpha virt. eigenvalues --    2.70343   2.70485   2.71121   2.71237   2.71656
 Alpha virt. eigenvalues --    2.71922   2.72439   2.73079   2.74493   2.75034
 Alpha virt. eigenvalues --    2.76293   2.76888   2.77230   2.77742   2.79261
 Alpha virt. eigenvalues --    2.79691   2.80024   2.81104   2.81598   2.83442
 Alpha virt. eigenvalues --    2.84005   2.84288   2.85613   2.86197   2.86814
 Alpha virt. eigenvalues --    2.87055   2.87180   2.88573   2.89354   2.89826
 Alpha virt. eigenvalues --    2.90435   2.90791   2.91693   2.91872   2.92286
 Alpha virt. eigenvalues --    2.92777   2.92816   2.93343   2.93909   2.94137
 Alpha virt. eigenvalues --    2.94418   2.94897   2.95016   2.95848   2.96295
 Alpha virt. eigenvalues --    2.96455   2.96825   2.97057   2.97956   2.98533
 Alpha virt. eigenvalues --    2.98917   2.99353   2.99422   3.00032   3.00165
 Alpha virt. eigenvalues --    3.00674   3.00796   3.01344   3.01583   3.01700
 Alpha virt. eigenvalues --    3.02279   3.03172   3.03686   3.03943   3.04539
 Alpha virt. eigenvalues --    3.04801   3.05081   3.05222   3.05950   3.06116
 Alpha virt. eigenvalues --    3.06847   3.07202   3.08529   3.08925   3.09045
 Alpha virt. eigenvalues --    3.09638   3.10387   3.11066   3.12252   3.12421
 Alpha virt. eigenvalues --    3.13212   3.13359   3.13521   3.13697   3.14939
 Alpha virt. eigenvalues --    3.15272   3.16008   3.16427   3.16455   3.17184
 Alpha virt. eigenvalues --    3.17792   3.18619   3.19349   3.19634   3.20263
 Alpha virt. eigenvalues --    3.21731   3.22180   3.22609   3.22987   3.23146
 Alpha virt. eigenvalues --    3.24195   3.24893   3.25334   3.25515   3.26155
 Alpha virt. eigenvalues --    3.26559   3.26882   3.27386   3.27716   3.28013
 Alpha virt. eigenvalues --    3.28568   3.28893   3.29840   3.29894   3.30821
 Alpha virt. eigenvalues --    3.31003   3.31423   3.32119   3.32326   3.32576
 Alpha virt. eigenvalues --    3.34298   3.34533   3.36275   3.37240   3.37677
 Alpha virt. eigenvalues --    3.37938   3.38557   3.38751   3.39653   3.39884
 Alpha virt. eigenvalues --    3.40818   3.41149   3.42202   3.43125   3.44170
 Alpha virt. eigenvalues --    3.44438   3.44781   3.46551   3.47161   3.47696
 Alpha virt. eigenvalues --    3.47763   3.48924   3.48966   3.49141   3.50255
 Alpha virt. eigenvalues --    3.51400   3.52031   3.52723   3.53875   3.54194
 Alpha virt. eigenvalues --    3.54267   3.54437   3.55529   3.56095   3.56185
 Alpha virt. eigenvalues --    3.57177   3.58559   3.58907   3.60125   3.60959
 Alpha virt. eigenvalues --    3.61501   3.62648   3.63405   3.64066   3.65242
 Alpha virt. eigenvalues --    3.66198   3.66786   3.67100   3.67701   3.68500
 Alpha virt. eigenvalues --    3.68737   3.69397   3.69668   3.70471   3.70893
 Alpha virt. eigenvalues --    3.71578   3.72321   3.72558   3.73979   3.75099
 Alpha virt. eigenvalues --    3.75288   3.75528   3.76296   3.76413   3.76498
 Alpha virt. eigenvalues --    3.77233   3.78077   3.78930   3.79204   3.79365
 Alpha virt. eigenvalues --    3.79565   3.80740   3.80839   3.81293   3.83618
 Alpha virt. eigenvalues --    3.84240   3.85918   3.86429   3.86531   3.87152
 Alpha virt. eigenvalues --    3.87751   3.88338   3.89099   3.90205   3.90248
 Alpha virt. eigenvalues --    3.91858   3.92484   3.92904   3.93399   3.93728
 Alpha virt. eigenvalues --    3.94007   3.94195   3.95299   3.95904   3.96251
 Alpha virt. eigenvalues --    3.96433   3.97036   3.97749   3.99567   3.99649
 Alpha virt. eigenvalues --    4.01015   4.01237   4.01964   4.03141   4.03757
 Alpha virt. eigenvalues --    4.05052   4.05780   4.06640   4.07958   4.08375
 Alpha virt. eigenvalues --    4.08759   4.08891   4.09707   4.10215   4.10362
 Alpha virt. eigenvalues --    4.11743   4.11971   4.12723   4.12849   4.13510
 Alpha virt. eigenvalues --    4.13597   4.14845   4.14887   4.15501   4.16347
 Alpha virt. eigenvalues --    4.16415   4.17059   4.17412   4.18339   4.19360
 Alpha virt. eigenvalues --    4.19902   4.20900   4.21224   4.23103   4.23738
 Alpha virt. eigenvalues --    4.23741   4.24892   4.25447   4.25685   4.25943
 Alpha virt. eigenvalues --    4.27069   4.27442   4.28019   4.28947   4.29626
 Alpha virt. eigenvalues --    4.31807   4.32109   4.32956   4.34533   4.34833
 Alpha virt. eigenvalues --    4.35284   4.35453   4.36297   4.37341   4.37530
 Alpha virt. eigenvalues --    4.38130   4.38870   4.38979   4.40141   4.40673
 Alpha virt. eigenvalues --    4.41580   4.43955   4.44076   4.44684   4.45342
 Alpha virt. eigenvalues --    4.46233   4.47676   4.48795   4.49022   4.51898
 Alpha virt. eigenvalues --    4.52216   4.54528   4.55099   4.56811   4.57619
 Alpha virt. eigenvalues --    4.58068   4.59674   4.60993   4.62838   4.62870
 Alpha virt. eigenvalues --    4.64999   4.65145   4.66116   4.66960   4.67937
 Alpha virt. eigenvalues --    4.68407   4.69947   4.70612   4.72147   4.73148
 Alpha virt. eigenvalues --    4.74225   4.74326   4.74682   4.75935   4.76189
 Alpha virt. eigenvalues --    4.77036   4.78055   4.78695   4.79187   4.79602
 Alpha virt. eigenvalues --    4.79635   4.81691   4.82425   4.83411   4.84405
 Alpha virt. eigenvalues --    4.85623   4.87195   4.87417   4.87903   4.89884
 Alpha virt. eigenvalues --    4.92148   4.92681   4.94676   4.96816   4.98372
 Alpha virt. eigenvalues --    4.99240   4.99609   5.02263   5.03496   5.03967
 Alpha virt. eigenvalues --    5.04480   5.05552   5.07491   5.11131   5.11583
 Alpha virt. eigenvalues --    5.12155   5.12791   5.14268   5.16874   5.18201
 Alpha virt. eigenvalues --    5.18569   5.20294   5.21578   5.22406   5.23646
 Alpha virt. eigenvalues --    5.23760   5.28510   5.33439   5.35062   5.37845
 Alpha virt. eigenvalues --    5.39351   5.40230   5.42951   5.46467   5.52101
 Alpha virt. eigenvalues --    5.53489   5.60743   5.64851   5.66568   5.66928
 Alpha virt. eigenvalues --    5.70287   5.72838   5.72976   5.76109   5.78121
 Alpha virt. eigenvalues --    5.82248   5.82351   5.85651   5.86398   5.91261
 Alpha virt. eigenvalues --    5.91406   5.94562   5.96381   5.97010   6.01233
 Alpha virt. eigenvalues --    6.02288   6.05468   6.09413   6.21261   6.28840
 Alpha virt. eigenvalues --    6.38645   6.63479   6.86802   7.73890   9.08408
 Alpha virt. eigenvalues --   10.37382  11.31469  11.64457  12.03959  12.07629
 Alpha virt. eigenvalues --   12.38030  12.51783  12.86338  13.15119  13.31889
 Alpha virt. eigenvalues --   13.45844  13.56324  13.66502  13.80116  14.18101
 Alpha virt. eigenvalues --   14.66507  14.89592  15.08896  15.17616  16.07329
          Condensed to atoms (all electrons):
               1          2          3          4          5          6
     1  C    5.181855   0.308488  -0.031336  -0.035623  -0.028900   0.439300
     2  C    0.308488   5.049149   0.400068  -0.031336  -0.033250  -0.015561
     3  C   -0.031336   0.400068   5.049146   0.308491  -0.015561  -0.033250
     4  C   -0.035623  -0.031336   0.308491   5.181851   0.439301  -0.028900
     5  C   -0.028900  -0.033250  -0.015561   0.439301   5.105435   0.314839
     6  C    0.439300  -0.015561  -0.033250  -0.028900   0.314839   5.105434
     7  H    0.456103  -0.074272   0.006532  -0.002221   0.008383  -0.047177
     8  H   -0.002221   0.006532  -0.074271   0.456102  -0.047177   0.008383
     9  H    0.009003  -0.001540   0.010206  -0.065476   0.462588  -0.058891
    10  H   -0.065476   0.010206  -0.001540   0.009003  -0.058892   0.462589
    11  C   -0.075721   0.383851  -0.033893   0.006814  -0.001591   0.007125
    12  C    0.005723  -0.010950  -0.031473   0.001390   0.000127  -0.000749
    13  C    0.001390  -0.031471  -0.010952   0.005723  -0.000749   0.000127
    14  C    0.006814  -0.033894   0.383852  -0.075721   0.007125  -0.001591
    15  H   -0.001683  -0.067572   0.006471  -0.000200  -0.000035   0.000794
    16  H   -0.000200   0.006471  -0.067572  -0.001683   0.000794  -0.000035
    17  C   -0.001453   0.006114   0.000762   0.000269  -0.000019   0.000047
    18  C    0.000037  -0.001117   0.000041  -0.000007   0.000000  -0.000001
    19  C   -0.000007   0.000041  -0.001117   0.000037  -0.000001   0.000000
    20  C    0.000269   0.000762   0.006114  -0.001453   0.000047  -0.000019
    21  H   -0.000107   0.001345  -0.000021   0.000002  -0.000001   0.000003
    22  H    0.000002  -0.000021   0.001345  -0.000107   0.000003  -0.000001
    23  C   -0.000001   0.000061  -0.000014   0.000000   0.000000  -0.000000
    24  C    0.000000  -0.000014   0.000061  -0.000001  -0.000000   0.000000
    25  H   -0.000000   0.000007  -0.000001  -0.000000   0.000000  -0.000000
    26  H   -0.000000  -0.000001   0.000007  -0.000000  -0.000000   0.000000
    27  C   -0.000000   0.000000   0.000000   0.000000   0.000000   0.000000
    28  C    0.000000  -0.000000  -0.000000   0.000000  -0.000000  -0.000000
    29  C    0.000000  -0.000000  -0.000000   0.000000  -0.000000  -0.000000
    30  C    0.000000   0.000000   0.000000  -0.000000   0.000000   0.000000
    31  H   -0.000000  -0.000000   0.000000   0.000000  -0.000000   0.000000
    32  H    0.000000   0.000000  -0.000000   0.000000   0.000000  -0.000000
    33  H    0.000000  -0.000000   0.000000  -0.000000  -0.000000   0.000000
    34  H    0.000000   0.000000  -0.000000  -0.000000   0.000000  -0.000000
    35  C    0.000000   0.000000  -0.000001  -0.000000   0.000000  -0.000000
    36  C   -0.000000  -0.000001   0.000000   0.000000  -0.000000   0.000000
    37  H    0.000000  -0.000000   0.000000   0.000000  -0.000000   0.000000
    38  H   -0.000000   0.000000  -0.000000   0.000000   0.000000  -0.000000
               7          8          9         10         11         12
     1  C    0.456103  -0.002221   0.009003  -0.065476  -0.075721   0.005723
     2  C   -0.074272   0.006532  -0.001540   0.010206   0.383851  -0.010950
     3  C    0.006532  -0.074271   0.010206  -0.001540  -0.033893  -0.031473
     4  C   -0.002221   0.456102  -0.065476   0.009003   0.006814   0.001390
     5  C    0.008383  -0.047177   0.462588  -0.058892  -0.001591   0.000127
     6  C   -0.047177   0.008383  -0.058891   0.462589   0.007125  -0.000749
     7  H    0.522094   0.000056  -0.000212  -0.008885   0.000208   0.000627
     8  H    0.000056   0.522093  -0.008885  -0.000212  -0.000015  -0.000070
     9  H   -0.000212  -0.008885   0.535312  -0.006243   0.000110   0.000000
    10  H   -0.008885  -0.000212  -0.006243   0.535311  -0.000637   0.000012
    11  C    0.000208  -0.000015   0.000110  -0.000637   5.337444   0.359283
    12  C    0.000627  -0.000070   0.000000   0.000012   0.359283   4.967224
    13  C   -0.000070   0.000627   0.000012   0.000000  -0.045658   0.431957
    14  C   -0.000015   0.000208  -0.000637   0.000110  -0.036403  -0.045657
    15  H    0.004967   0.000027  -0.000003  -0.000067   0.456168  -0.062187
    16  H    0.000027   0.004968  -0.000067  -0.000003  -0.001866   0.005373
    17  C   -0.000091   0.000002   0.000000  -0.000000  -0.088109   0.369780
    18  C    0.000004  -0.000001   0.000000  -0.000000   0.007872  -0.007300
    19  C   -0.000001   0.000004  -0.000000   0.000000   0.001094  -0.033619
    20  C    0.000002  -0.000091  -0.000000   0.000000   0.008862  -0.032293
    21  H   -0.000003   0.000000  -0.000000  -0.000000  -0.001253  -0.069209
    22  H    0.000000  -0.000003  -0.000000  -0.000000  -0.000184   0.006130
    23  C   -0.000000  -0.000000   0.000000  -0.000000  -0.001625   0.005790
    24  C   -0.000000  -0.000000  -0.000000   0.000000   0.000289   0.001395
    25  H    0.000000  -0.000000   0.000000  -0.000000  -0.000138   0.001374
    26  H   -0.000000   0.000000  -0.000000   0.000000   0.000003  -0.000015
    27  C    0.000000   0.000000   0.000000  -0.000000  -0.000001   0.000041
    28  C   -0.000000  -0.000000  -0.000000   0.000000   0.000000  -0.000000
    29  C   -0.000000  -0.000000   0.000000  -0.000000  -0.000000   0.000000
    30  C    0.000000   0.000000  -0.000000   0.000000   0.000000  -0.000009
    31  H    0.000000   0.000000   0.000000  -0.000000  -0.000000   0.000005
    32  H   -0.000000   0.000000  -0.000000  -0.000000   0.000000   0.000000
    33  H    0.000000  -0.000000  -0.000000   0.000000   0.000000   0.000000
    34  H    0.000000   0.000000  -0.000000   0.000000  -0.000000  -0.000001
    35  C    0.000000  -0.000000  -0.000000   0.000000  -0.000012   0.000162
    36  C   -0.000000   0.000000   0.000000  -0.000000   0.000038  -0.001216
    37  H   -0.000000  -0.000000  -0.000000  -0.000000  -0.000000   0.000000
    38  H   -0.000000   0.000000   0.000000  -0.000000  -0.000000  -0.000000
              13         14         15         16         17         18
     1  C    0.001390   0.006814  -0.001683  -0.000200  -0.001453   0.000037
     2  C   -0.031471  -0.033894  -0.067572   0.006471   0.006114  -0.001117
     3  C   -0.010952   0.383852   0.006471  -0.067572   0.000762   0.000041
     4  C    0.005723  -0.075721  -0.000200  -0.001683   0.000269  -0.000007
     5  C   -0.000749   0.007125  -0.000035   0.000794  -0.000019   0.000000
     6  C    0.000127  -0.001591   0.000794  -0.000035   0.000047  -0.000001
     7  H   -0.000070  -0.000015   0.004967   0.000027  -0.000091   0.000004
     8  H    0.000627   0.000208   0.000027   0.004968   0.000002  -0.000001
     9  H    0.000012  -0.000637  -0.000003  -0.000067   0.000000   0.000000
    10  H    0.000000   0.000110  -0.000067  -0.000003  -0.000000  -0.000000
    11  C   -0.045658  -0.036403   0.456168  -0.001866  -0.088109   0.007872
    12  C    0.431957  -0.045657  -0.062187   0.005373   0.369780  -0.007300
    13  C    4.967220   0.359290   0.005373  -0.062185  -0.032291  -0.033623
    14  C    0.359290   5.337437  -0.001866   0.456166   0.008862   0.001094
    15  H    0.005373  -0.001866   0.506219   0.000072   0.002189   0.001043
    16  H   -0.062185   0.456166   0.000072   0.506217  -0.000197  -0.000035
    17  C   -0.032291   0.008862   0.002189  -0.000197   5.380492   0.339629
    18  C   -0.033623   0.001094   0.001043  -0.000035   0.339629   4.966346
    19  C   -0.007301   0.007872  -0.000035   0.001043  -0.042480   0.423450
    20  C    0.369780  -0.088108  -0.000197   0.002189  -0.042422  -0.042478
    21  H    0.006130  -0.000184   0.004895   0.000025   0.461308  -0.065537
    22  H   -0.069211  -0.001254   0.000025   0.004895  -0.002041   0.005602
    23  C    0.001396   0.000289  -0.000101   0.000002  -0.083071   0.413692
    24  C    0.005790  -0.001625   0.000002  -0.000101   0.008355  -0.039002
    25  H   -0.000015   0.000003  -0.000009   0.000000  -0.001016  -0.062737
    26  H    0.001373  -0.000138   0.000000  -0.000009  -0.000226   0.005804
    27  C   -0.000009   0.000000  -0.000000  -0.000000  -0.000952   0.004383
    28  C    0.000000  -0.000000   0.000000   0.000000   0.000019  -0.000513
    29  C   -0.000000   0.000000   0.000000   0.000000  -0.000011   0.000144
    30  C    0.000041  -0.000001  -0.000000  -0.000000   0.000177   0.000890
    31  H   -0.000001  -0.000000   0.000000  -0.000000  -0.000112   0.000550
    32  H    0.000000  -0.000000   0.000000   0.000000  -0.000004   0.000059
    33  H   -0.000000  -0.000000   0.000000  -0.000000   0.000000  -0.000001
    34  H    0.000005  -0.000000  -0.000000   0.000000   0.000001  -0.000061
    35  C   -0.001216   0.000038  -0.000001   0.000005  -0.000356  -0.026692
    36  C    0.000161  -0.000012   0.000005  -0.000001   0.008665  -0.022221
    37  H    0.000000   0.000000   0.000000   0.000000   0.000001  -0.000043
    38  H    0.000000   0.000000  -0.000000   0.000000  -0.000000   0.000005
              19         20         21         22         23         24
     1  C   -0.000007   0.000269  -0.000107   0.000002  -0.000001   0.000000
     2  C    0.000041   0.000762   0.001345  -0.000021   0.000061  -0.000014
     3  C   -0.001117   0.006114  -0.000021   0.001345  -0.000014   0.000061
     4  C    0.000037  -0.001453   0.000002  -0.000107   0.000000  -0.000001
     5  C   -0.000001   0.000047  -0.000001   0.000003   0.000000  -0.000000
     6  C    0.000000  -0.000019   0.000003  -0.000001  -0.000000   0.000000
     7  H   -0.000001   0.000002  -0.000003   0.000000  -0.000000  -0.000000
     8  H    0.000004  -0.000091   0.000000  -0.000003  -0.000000  -0.000000
     9  H   -0.000000  -0.000000  -0.000000  -0.000000   0.000000  -0.000000
    10  H    0.000000   0.000000  -0.000000  -0.000000  -0.000000   0.000000
    11  C    0.001094   0.008862  -0.001253  -0.000184  -0.001625   0.000289
    12  C   -0.033619  -0.032293  -0.069209   0.006130   0.005790   0.001395
    13  C   -0.007301   0.369780   0.006130  -0.069211   0.001396   0.005790
    14  C    0.007872  -0.088108  -0.000184  -0.001254   0.000289  -0.001625
    15  H   -0.000035  -0.000197   0.004895   0.000025  -0.000101   0.000002
    16  H    0.001043   0.002189   0.000025   0.004895   0.000002  -0.000101
    17  C   -0.042480  -0.042422   0.461308  -0.002041  -0.083071   0.008355
    18  C    0.423450  -0.042478  -0.065537   0.005602   0.413692  -0.039002
    19  C    4.966345   0.339625   0.005602  -0.065534  -0.038991   0.413703
    20  C    0.339625   5.380489  -0.002040   0.461308   0.008353  -0.083064
    21  H    0.005602  -0.002040   0.506556   0.000072   0.001675  -0.000166
    22  H   -0.065534   0.461308   0.000072   0.506556  -0.000166   0.001674
    23  C   -0.038991   0.008353   0.001675  -0.000166   5.300295  -0.034254
    24  C    0.413703  -0.083064  -0.000166   0.001674  -0.034254   5.300239
    25  H    0.005806  -0.000226   0.004952   0.000025   0.449913  -0.001656
    26  H   -0.062736  -0.001016   0.000025   0.004951  -0.001656   0.449913
    27  C    0.000889   0.000177  -0.000066   0.000000  -0.084683   0.008445
    28  C    0.000144  -0.000011   0.000001  -0.000000   0.008282  -0.001867
    29  C   -0.000513   0.000019  -0.000000   0.000001  -0.001866   0.008281
    30  C    0.004382  -0.000952   0.000000  -0.000066   0.008442  -0.084687
    31  H   -0.000061   0.000001  -0.000002   0.000000  -0.003699  -0.000115
    32  H   -0.000043   0.000001  -0.000000  -0.000000   0.000927  -0.000318
    33  H    0.000005  -0.000000   0.000000  -0.000000   0.000074  -0.000512
    34  H    0.000550  -0.000112   0.000000  -0.000002  -0.000115  -0.003697
    35  C   -0.022222   0.008663  -0.000042   0.001032  -0.046188   0.366993
    36  C   -0.026699  -0.000355   0.001031  -0.000042   0.366970  -0.046181
    37  H    0.000060  -0.000004  -0.000000  -0.000000  -0.000317   0.000926
    38  H   -0.000001   0.000000  -0.000000   0.000000  -0.000512   0.000074
              25         26         27         28         29         30
     1  C   -0.000000  -0.000000  -0.000000   0.000000   0.000000   0.000000
     2  C    0.000007  -0.000001   0.000000  -0.000000  -0.000000   0.000000
     3  C   -0.000001   0.000007   0.000000  -0.000000  -0.000000   0.000000
     4  C   -0.000000  -0.000000   0.000000   0.000000   0.000000  -0.000000
     5  C    0.000000  -0.000000   0.000000  -0.000000  -0.000000   0.000000
     6  C   -0.000000   0.000000   0.000000  -0.000000  -0.000000   0.000000
     7  H    0.000000  -0.000000   0.000000  -0.000000  -0.000000   0.000000
     8  H   -0.000000   0.000000   0.000000  -0.000000  -0.000000   0.000000
     9  H    0.000000  -0.000000   0.000000  -0.000000   0.000000  -0.000000
    10  H   -0.000000   0.000000  -0.000000   0.000000  -0.000000   0.000000
    11  C   -0.000138   0.000003  -0.000001   0.000000  -0.000000   0.000000
    12  C    0.001374  -0.000015   0.000041  -0.000000   0.000000  -0.000009
    13  C   -0.000015   0.001373  -0.000009   0.000000  -0.000000   0.000041
    14  C    0.000003  -0.000138   0.000000  -0.000000   0.000000  -0.000001
    15  H   -0.000009   0.000000  -0.000000   0.000000   0.000000  -0.000000
    16  H    0.000000  -0.000009  -0.000000   0.000000   0.000000  -0.000000
    17  C   -0.001016  -0.000226  -0.000952   0.000019  -0.000011   0.000177
    18  C   -0.062737   0.005804   0.004383  -0.000513   0.000144   0.000890
    19  C    0.005806  -0.062736   0.000889   0.000144  -0.000513   0.004382
    20  C   -0.000226  -0.001016   0.000177  -0.000011   0.000019  -0.000952
    21  H    0.004952   0.000025  -0.000066   0.000001  -0.000000   0.000000
    22  H    0.000025   0.004951   0.000000  -0.000000   0.000001  -0.000066
    23  C    0.449913  -0.001656  -0.084683   0.008282  -0.001866   0.008442
    24  C   -0.001656   0.449913   0.008445  -0.001867   0.008281  -0.084687
    25  H    0.506153   0.000073   0.000046   0.000155  -0.000011  -0.000168
    26  H    0.000073   0.506150  -0.000168  -0.000011   0.000155   0.000045
    27  C    0.000046  -0.000168   5.380850   0.266036  -0.012247  -0.044633
    28  C    0.000155  -0.000011   0.266036   5.060013   0.258040  -0.012285
    29  C   -0.000011   0.000155  -0.012247   0.258040   5.060097   0.266009
    30  C   -0.000168   0.000045  -0.044633  -0.012285   0.266009   5.380788
    31  H    0.005218   0.000027   0.443232  -0.035113   0.005694  -0.001045
    32  H    0.000041   0.000014  -0.071733   0.402614  -0.046235   0.009259
    33  H   -0.000002  -0.000048   0.008749  -0.043072   0.439341  -0.048287
    34  H    0.000027   0.005218  -0.001044   0.005695  -0.035111   0.443216
    35  C    0.006392  -0.059539  -0.044491  -0.015028  -0.041003   0.422415
    36  C   -0.059540   0.006393   0.422335  -0.041012  -0.015039  -0.044490
    37  H    0.000015   0.000041   0.009212  -0.046166   0.402601  -0.071661
    38  H   -0.000048  -0.000002  -0.048293   0.439337  -0.043062   0.008747
              31         32         33         34         35         36
     1  C   -0.000000   0.000000   0.000000   0.000000   0.000000  -0.000000
     2  C   -0.000000   0.000000  -0.000000   0.000000   0.000000  -0.000001
     3  C    0.000000  -0.000000   0.000000  -0.000000  -0.000001   0.000000
     4  C    0.000000   0.000000  -0.000000  -0.000000  -0.000000   0.000000
     5  C   -0.000000   0.000000  -0.000000   0.000000   0.000000  -0.000000
     6  C    0.000000  -0.000000   0.000000  -0.000000  -0.000000   0.000000
     7  H    0.000000  -0.000000   0.000000   0.000000   0.000000  -0.000000
     8  H    0.000000   0.000000  -0.000000   0.000000  -0.000000   0.000000
     9  H    0.000000  -0.000000  -0.000000  -0.000000  -0.000000   0.000000
[...]
    23  C   -0.000000  -0.000000   0.000000  -0.000000  -0.001823   0.006458
    24  C   -0.000000  -0.000000  -0.000000   0.000000   0.000322   0.001386
    25  H    0.000000  -0.000000   0.000000  -0.000000  -0.000156   0.001510
    26  H   -0.000000   0.000000  -0.000000   0.000000   0.000003  -0.000022
    27  C    0.000000   0.000000   0.000000  -0.000000  -0.000001   0.000045
    28  C   -0.000000  -0.000000  -0.000000   0.000000   0.000000  -0.000001
    29  C   -0.000000  -0.000000   0.000000  -0.000000  -0.000000   0.000000
    30  C    0.000000   0.000000  -0.000000   0.000000   0.000000  -0.000010
    31  H    0.000000   0.000000   0.000000  -0.000000  -0.000000   0.000006
    32  H   -0.000000   0.000000  -0.000000  -0.000000   0.000000   0.000000
    33  H    0.000000  -0.000000  -0.000000   0.000000   0.000000   0.000000
    34  H    0.000000   0.000000  -0.000000   0.000000  -0.000000  -0.000001
    35  C    0.000000  -0.000000  -0.000000   0.000000  -0.000013   0.000202
    36  C   -0.000000   0.000000   0.000000  -0.000000   0.000043  -0.001396
    37  H    0.000000  -0.000000  -0.000000  -0.000000  -0.000000   0.000000
    38  H   -0.000000   0.000000   0.000000  -0.000000  -0.000000  -0.000000
              13         14         15         16         17         18
     1  C    0.001493   0.007369  -0.002030  -0.000201  -0.001619   0.000041
     2  C   -0.034298  -0.031847  -0.072270   0.006882   0.006696  -0.001276
     3  C   -0.005914   0.368247   0.006882  -0.072270   0.000754   0.000057
     4  C    0.006073  -0.078506  -0.000201  -0.002030   0.000301  -0.000008
     5  C   -0.000848   0.007929  -0.000041   0.000871  -0.000022   0.000000
     6  C    0.000146  -0.001794   0.000871  -0.000041   0.000053  -0.000001
     7  H   -0.000083   0.000013   0.004996   0.000030  -0.000100   0.000005
     8  H    0.000691  -0.000214   0.000030   0.004996   0.000002  -0.000001
     9  H    0.000014  -0.000695  -0.000003  -0.000074   0.000000   0.000000
    10  H    0.000000   0.000117  -0.000074  -0.000003  -0.000000  -0.000000
    11  C   -0.045153  -0.039442   0.464359  -0.002097  -0.091270   0.008534
    12  C    0.425732  -0.045153  -0.065754   0.005669   0.353405  -0.001920
    13  C    4.991189   0.347602   0.005669  -0.065754  -0.030024  -0.036833
    14  C    0.347602   5.368331  -0.002097   0.464359   0.009538   0.001157
    15  H    0.005669  -0.002097   0.508838   0.000075   0.002137   0.001142
    16  H   -0.065754   0.464359   0.000075   0.508838  -0.000187  -0.000043
    17  C   -0.030024   0.009538   0.002137  -0.000187   5.414071   0.325943
    18  C   -0.036833   0.001157   0.001142  -0.000043   0.325943   4.988915
    19  C   -0.001921   0.008534  -0.000043   0.001142  -0.041547   0.417959
    20  C    0.353405  -0.091270  -0.000187   0.002137  -0.046021  -0.041548
    21  H    0.006535  -0.000174   0.004887   0.000027   0.469959  -0.069448
    22  H   -0.073938  -0.001678   0.000027   0.004887  -0.002293   0.005915
    23  C    0.001386   0.000322  -0.000113   0.000002  -0.085933   0.402140
    24  C    0.006458  -0.001823   0.000002  -0.000113   0.008996  -0.037898
    25  H   -0.000022   0.000003  -0.000010   0.000000  -0.001453  -0.066652
    26  H    0.001510  -0.000156   0.000000  -0.000010  -0.000219   0.006178
    27  C   -0.000010   0.000000  -0.000000  -0.000000  -0.001056   0.004861
    28  C    0.000000  -0.000000  -0.000000   0.000000   0.000021  -0.000555
    29  C   -0.000001   0.000000   0.000000  -0.000000  -0.000012   0.000159
    30  C    0.000045  -0.000001  -0.000000  -0.000000   0.000195   0.000835
    31  H   -0.000001  -0.000000   0.000000  -0.000000  -0.000124   0.000579
    32  H    0.000000  -0.000000   0.000000   0.000000  -0.000005   0.000058
    33  H   -0.000000  -0.000000   0.000000  -0.000000   0.000000  -0.000001
    34  H    0.000006  -0.000000  -0.000000   0.000000   0.000001  -0.000072
    35  C   -0.001396   0.000043  -0.000001   0.000005  -0.000425  -0.029156
    36  C    0.000202  -0.000013   0.000005  -0.000001   0.009390  -0.018724
    37  H    0.000000   0.000000   0.000000   0.000000   0.000001  -0.000046
    38  H    0.000000   0.000000  -0.000000   0.000000  -0.000000   0.000006
              19         20         21         22         23         24
     1  C   -0.000008   0.000301  -0.000119   0.000002  -0.000001   0.000000
     2  C    0.000057   0.000754   0.001477  -0.000028   0.000071  -0.000016
     3  C   -0.001276   0.006696  -0.000028   0.001477  -0.000016   0.000071
     4  C    0.000041  -0.001619   0.000002  -0.000119   0.000000  -0.000001
     5  C   -0.000001   0.000053  -0.000001   0.000003   0.000000  -0.000000
     6  C    0.000000  -0.000022   0.000003  -0.000001  -0.000000   0.000000
     7  H   -0.000001   0.000002  -0.000003   0.000000  -0.000000  -0.000000
     8  H    0.000005  -0.000100   0.000000  -0.000003  -0.000000  -0.000000
     9  H   -0.000000  -0.000000  -0.000000  -0.000000   0.000000  -0.000000
    10  H    0.000000   0.000000  -0.000000  -0.000000  -0.000000   0.000000
    11  C    0.001157   0.009538  -0.001678  -0.000174  -0.001823   0.000322
    12  C   -0.036832  -0.030024  -0.073937   0.006535   0.006458   0.001386
    13  C   -0.001921   0.353405   0.006535  -0.073938   0.001386   0.006458
    14  C    0.008534  -0.091270  -0.000174  -0.001678   0.000322  -0.001823
    15  H   -0.000043  -0.000187   0.004887   0.000027  -0.000113   0.000002
    16  H    0.001142   0.002137   0.000027   0.004887   0.000002  -0.000113
    17  C   -0.041547  -0.046021   0.469959  -0.002293  -0.085933   0.008996
    18  C    0.417959  -0.041548  -0.069448   0.005915   0.402140  -0.037898
    19  C    4.988914   0.325942   0.005915  -0.069447  -0.037896   0.402140
    20  C    0.325942   5.414069  -0.002293   0.469959   0.008996  -0.085931
    21  H    0.005915  -0.002293   0.509102   0.000074   0.001606  -0.000154
    22  H   -0.069447   0.469959   0.000074   0.509102  -0.000154   0.001606
    23  C   -0.037896   0.008996   0.001606  -0.000154   5.325051  -0.036312
    24  C    0.402140  -0.085931  -0.000154   0.001606  -0.036312   5.325045
    25  H    0.006178  -0.000219   0.004944   0.000027   0.457365  -0.001854
    26  H   -0.066652  -0.001453   0.000027   0.004943  -0.001854   0.457364
    27  C    0.000835   0.000195  -0.000072   0.000000  -0.088342   0.009151
    28  C    0.000159  -0.000012   0.000001  -0.000000   0.008841  -0.001994
    29  C   -0.000555   0.000021  -0.000000   0.000001  -0.001994   0.008841
    30  C    0.004861  -0.001056   0.000000  -0.000072   0.009151  -0.088342
    31  H   -0.000072   0.000001  -0.000002   0.000000  -0.004368  -0.000106
    32  H   -0.000046   0.000001  -0.000000  -0.000000   0.000967  -0.000328
    33  H    0.000006  -0.000000   0.000000  -0.000000   0.000080  -0.000552
    34  H    0.000579  -0.000124   0.000000  -0.000002  -0.000106  -0.004368
    35  C   -0.018725   0.009390  -0.000052   0.001126  -0.045387   0.356666
    36  C   -0.029156  -0.000425   0.001126  -0.000052   0.356662  -0.045386
    37  H    0.000058  -0.000005  -0.000000  -0.000000  -0.000328   0.000967
    38  H   -0.000001   0.000000  -0.000000   0.000000  -0.000552   0.000080
              25         26         27         28         29         30
     1  C   -0.000000  -0.000000  -0.000000   0.000000   0.000000   0.000000
     2  C    0.000008  -0.000001   0.000000  -0.000000  -0.000000   0.000000
     3  C   -0.000001   0.000008   0.000000  -0.000000  -0.000000   0.000000
     4  C   -0.000000  -0.000000   0.000000   0.000000   0.000000  -0.000000
     5  C    0.000000  -0.000000   0.000000  -0.000000  -0.000000   0.000000
     6  C   -0.000000   0.000000   0.000000  -0.000000  -0.000000   0.000000
     7  H    0.000000  -0.000000   0.000000  -0.000000  -0.000000   0.000000
     8  H   -0.000000   0.000000   0.000000  -0.000000  -0.000000   0.000000
     9  H    0.000000  -0.000000   0.000000  -0.000000   0.000000  -0.000000
    10  H   -0.000000   0.000000  -0.000000   0.000000  -0.000000   0.000000
    11  C   -0.000156   0.000003  -0.000001   0.000000  -0.000000   0.000000
    12  C    0.001510  -0.000022   0.000045  -0.000001   0.000000  -0.000010
    13  C   -0.000022   0.001510  -0.000010   0.000000  -0.000001   0.000045
    14  C    0.000003  -0.000156   0.000000  -0.000000   0.000000  -0.000001
    15  H   -0.000010   0.000000  -0.000000  -0.000000   0.000000  -0.000000
    16  H    0.000000  -0.000010  -0.000000   0.000000  -0.000000  -0.000000
    17  C   -0.001453  -0.000219  -0.001056   0.000021  -0.000012   0.000195
    18  C   -0.066652   0.006178   0.004861  -0.000555   0.000159   0.000835
    19  C    0.006178  -0.066652   0.000835   0.000159  -0.000555   0.004861
    20  C   -0.000219  -0.001453   0.000195  -0.000012   0.000021  -0.001056
    21  H    0.004944   0.000027  -0.000072   0.000001  -0.000000   0.000000
    22  H    0.000027   0.004943   0.000000  -0.000000   0.000001  -0.000072
    23  C    0.457365  -0.001854  -0.088342   0.008841  -0.001994   0.009151
    24  C   -0.001854   0.457364   0.009151  -0.001994   0.008841  -0.088342
    25  H    0.508655   0.000076  -0.000039   0.000167  -0.000012  -0.000168
    26  H    0.000076   0.508654  -0.000168  -0.000012   0.000167  -0.000039
    27  C   -0.000039  -0.000168   5.390345   0.262198  -0.011898  -0.045643
    28  C    0.000167  -0.000012   0.262198   5.061752   0.254857  -0.011904
    29  C   -0.000012   0.000167  -0.011898   0.254857   5.061760   0.262198
    30  C   -0.000168  -0.000039  -0.045643  -0.011904   0.262198   5.390330
    31  H    0.005271   0.000030   0.446961  -0.035695   0.005913  -0.001137
    32  H    0.000045   0.000016  -0.072250   0.405030  -0.046312   0.009123
    33  H   -0.000002  -0.000052   0.009080  -0.043617   0.441922  -0.049078
    34  H    0.000030   0.005270  -0.001137   0.005913  -0.035695   0.446960
    35  C    0.006722  -0.063026  -0.045115  -0.015682  -0.040682   0.418570
    36  C   -0.063026   0.006722   0.418556  -0.040681  -0.015683  -0.045114
    37  H    0.000016   0.000045   0.009116  -0.046299   0.405025  -0.072239
    38  H   -0.000052  -0.000002  -0.049078   0.441919  -0.043613   0.009080
              31         32         33         34         35         36
     1  C   -0.000000   0.000000   0.000000   0.000000   0.000000  -0.000000
     2  C   -0.000000   0.000000  -0.000000   0.000000   0.000001  -0.000002
     3  C    0.000000  -0.000000   0.000000  -0.000000  -0.000002   0.000001
     4  C    0.000000   0.000000  -0.000000  -0.000000  -0.000000   0.000000
     5  C   -0.000000   0.000000  -0.000000   0.000000   0.000000  -0.000000
     6  C    0.000000  -0.000000   0.000000  -0.000000  -0.000000   0.000000
     7  H    0.000000  -0.000000   0.000000   0.000000   0.000000  -0.000000
     8  H    0.000000   0.000000  -0.000000   0.000000  -0.000000   0.000000
     9  H    0.000000  -0.000000  -0.000000  -0.000000  -0.000000   0.000000
    10  H   -0.000000  -0.000000   0.000000   0.000000   0.000000  -0.000000
    11  C   -0.000000   0.000000   0.000000  -0.000000  -0.000013   0.000043
    12  C    0.000006   0.000000   0.000000  -0.000001   0.000202  -0.001396
    13  C   -0.000001   0.000000  -0.000000   0.000006  -0.001396   0.000202
    14  C   -0.000000  -0.000000  -0.000000  -0.000000   0.000043  -0.000013
    15  H    0.000000   0.000000   0.000000  -0.000000  -0.000001   0.000005
    16  H   -0.000000   0.000000  -0.000000   0.000000   0.000005  -0.000001
    17  C   -0.000124  -0.000005   0.000000   0.000001  -0.000425   0.009390
    18  C    0.000579   0.000058  -0.000001  -0.000072  -0.029156  -0.018724
    19  C   -0.000072  -0.000046   0.000006   0.000579  -0.018725  -0.029156
    20  C    0.000001   0.000001  -0.000000  -0.000124   0.009390  -0.000425
    21  H   -0.000002  -0.000000   0.000000   0.000000  -0.000052   0.001126
    22  H    0.000000  -0.000000  -0.000000  -0.000002   0.001126  -0.000052
    23  C   -0.004368   0.000967   0.000080  -0.000106  -0.045387   0.356662
    24  C   -0.000106  -0.000328  -0.000552  -0.004368   0.356666  -0.045386
    25  H    0.005271   0.000045  -0.000002   0.000030   0.006722  -0.063026
    26  H    0.000030   0.000016  -0.000052   0.005270  -0.063026   0.006722
    27  C    0.446961  -0.072250   0.009080  -0.001137  -0.045115   0.418556
    28  C   -0.035695   0.405030  -0.043617   0.005913  -0.015682  -0.040681
    29  C    0.005913  -0.046312   0.441922  -0.035695  -0.040682  -0.015683
    30  C   -0.001137   0.009123  -0.049078   0.446960   0.418570  -0.045114
    31  H    0.510477  -0.000082  -0.000306   0.000083   0.007266  -0.072661
    32  H   -0.000082   0.561001  -0.004996   0.000197   0.001517   0.000943
    33  H   -0.000306  -0.004996   0.541812  -0.005142   0.007796  -0.000867
    34  H    0.000083   0.000197  -0.005142   0.510478  -0.072661   0.007266
    35  C    0.007266   0.001517   0.007796  -0.072661   5.003362   0.387081
    36  C   -0.072661   0.000943  -0.000867   0.007266   0.387081   5.003383
    37  H    0.000197   0.011640  -0.018488  -0.000082   0.000939   0.001520
    38  H   -0.005142  -0.018485  -0.003889  -0.000306  -0.000867   0.007796
              37         38
     1  C    0.000000  -0.000000
     2  C   -0.000000   0.000000
     3  C    0.000000  -0.000000
     4  C    0.000000   0.000000
     5  C   -0.000000   0.000000
     6  C    0.000000  -0.000000
     7  H    0.000000  -0.000000
     8  H   -0.000000   0.000000
     9  H   -0.000000   0.000000
    10  H   -0.000000  -0.000000
    11  C   -0.000000  -0.000000
    12  C    0.000000  -0.000000
    13  C    0.000000   0.000000
    14  C    0.000000   0.000000
    15  H    0.000000  -0.000000
    16  H    0.000000   0.000000
    17  C    0.000001  -0.000000
    18  C   -0.000046   0.000006
    19  C    0.000058  -0.000001
    20  C   -0.000005   0.000000
    21  H   -0.000000  -0.000000
    22  H   -0.000000   0.000000
    23  C   -0.000328  -0.000552
    24  C    0.000967   0.000080
    25  H    0.000016  -0.000052
    26  H    0.000045  -0.000002
    27  C    0.009116  -0.049078
    28  C   -0.046299   0.441919
    29  C    0.405025  -0.043613
    30  C   -0.072239   0.009080
    31  H    0.000197  -0.005142
    32  H    0.011640  -0.018485
    33  H   -0.018488  -0.003889
    34  H   -0.000082  -0.000306
    35  C    0.000939  -0.000867
    36  C    0.001520   0.007796
    37  H    0.560992  -0.004993
    38  H   -0.004993   0.541810
 Mulliken charges:
               1
     1  C   -0.160937
     2  C    0.134522
     3  C    0.134522
     4  C   -0.160937
     5  C   -0.150834
     6  C   -0.150834
     7  H    0.130261
     8  H    0.130261
     9  H    0.120475
    10  H    0.120475
    11  C   -0.288701
    12  C    0.148039
    13  C    0.148038
    14  C   -0.288700
    15  H    0.142904
    16  H    0.142904
    17  C   -0.299155
    18  C    0.139699
    19  C    0.139699
    20  C   -0.299152
    21  H    0.142276
    22  H    0.142276
    23  C   -0.273919
    24  C   -0.273917
    25  H    0.142650
    26  H    0.142650
    27  C   -0.236537
    28  C   -0.244408
    29  C   -0.244408
    30  C   -0.236544
    31  H    0.142912
    32  H    0.151967
    33  H    0.126294
    34  H    0.142912
    35  C    0.132501
    36  C    0.132491
    37  H    0.151965
    38  H    0.126288
 Sum of Mulliken charges =  -0.00000
 Mulliken charges with hydrogens summed into heavy atoms:
               1
     1  C   -0.030676
     2  C    0.134522
     3  C    0.134522
     4  C   -0.030675
     5  C   -0.030359
     6  C   -0.030359
    11  C   -0.145797
    12  C    0.148039
    13  C    0.148038
    14  C   -0.145796
    17  C   -0.156879
    18  C    0.139699
    19  C    0.139699
    20  C   -0.156877
    23  C   -0.131269
    24  C   -0.131267
    27  C   -0.093625
    28  C    0.033848
    29  C    0.033850
    30  C   -0.093632
    35  C    0.132501
    36  C    0.132491
 Electronic spatial extent (au):  <R**2>=           9486.4333
 Charge=              0.0000 electrons
 Dipole moment (field-independent basis, Debye):
    X=             -0.9563    Y=             -0.0000    Z=              0.0001  Tot=              0.9563
 Quadrupole moment (field-independent basis, Debye-Ang):
   XX=           -107.1310   YY=           -114.8507   ZZ=           -134.8750
   XY=              0.0001   XZ=             -0.0003   YZ=              0.0735
 Traceless Quadrupole moment (field-independent basis, Debye-Ang):
   XX=             11.8212   YY=              4.1015   ZZ=            -15.9228
   XY=              0.0001   XZ=             -0.0003   YZ=              0.0735
 Octapole moment (field-independent basis, Debye-Ang**2):
  XXX=            -22.3209  YYY=              0.0002  ZZZ=              0.0006  XYY=              4.2995
  XXY=             -0.0003  XXZ=              0.0028  XZZ=            -11.5938  YZZ=             -0.0003
  YYZ=              0.0000  XYZ=              5.2957
 Hexadecapole moment (field-independent basis, Debye-Ang**3):
 XXXX=         -10725.1331 YYYY=          -1122.5253 ZZZZ=           -185.4899 XXXY=              0.0000
 XXXZ=              0.0169 YYYX=             -0.0013 YYYZ=              3.6228 ZZZX=              0.0285
 ZZZY=             -2.5163 XXYY=          -2046.3903 XXZZ=          -2162.4492 YYZZ=           -259.5462
 XXYZ=             -7.2184 YYXZ=              0.0087 ZZXY=              0.0013
 N-N= 1.533198698778D+03 E-N=-5.030836608125D+03  KE= 8.413848472213D+02
 1\1\GINC-CN0635\FOpt\RM06\CC-pVTZ\C22H16\GRAHA682\14-Aug-2017\0\\# opt
  cc-pvtz geom=connectivity m06\\Title Card Required\\0,1\C,4.986563091
 8,1.4009655105,0.0687630797\C,3.7245829205,0.7251030841,0.0359912757\C
 ,3.7245840024,-0.7251093588,-0.035982019\C,4.9865665132,-1.4009695059,
 -0.0687418774\C,6.1471122429,-0.7148302523,-0.0350120806\C,6.147110715
 1,0.7148285624,0.0350445725\H,4.9825314207,2.483376316,0.1216947361\H,
 4.982537619,-2.4833802835,-0.1216731472\H,7.0922631122,-1.2414033596,-
 0.0607873584\H,7.0922604881,1.2414030805,0.0608300948\C,2.5369128711,1
 .3997499402,0.0703262333\C,1.2882240138,0.7278970745,0.0376722124\C,1.
 2882246341,-0.7279086771,-0.0376858441\C,2.5369164931,-1.3997590923,-0
 .0703273602\H,2.5394762305,2.4835452895,0.1242442446\H,2.5394836671,-2
 .483554427,-0.1242424896\C,0.095280069,1.4019710663,0.0746075044\C,-1.
 1529177097,0.7313033153,0.0413543933\C,-1.1529172516,-0.7313210976,-0.
 0413791735\C,0.0952837603,-1.4019859616,-0.0746295721\H,0.0979289295,2
 .4855625967,0.1295778307\H,0.0979378474,-2.4855775296,-0.1295947554\C,
 -2.3414850778,1.4075518499,0.0653165094\C,-2.3414815376,-1.4075730614,
 -0.0653350406\H,-2.3373682283,2.4921469752,0.0950852683\H,-2.337363499
 4,-2.4921670291,-0.0951384288\C,-4.7692049267,1.4010429735,-0.15923092
 36\C,-6.0331476929,0.6491326894,-0.3896075723\C,-6.0331347809,-0.64919
 66603,0.3898117164\C,-4.7691831411,-1.401081854,0.1593495005\H,-4.7635
 956802,2.4826790188,-0.229269384\H,-6.1127480375,0.4247894055,-1.46789
 91558\H,-6.9082960169,-1.2500296914,0.1392965748\H,-4.7635521292,-2.48
 27165379,0.2294108952\C,-3.5981075803,-0.7377516337,0.0050966488\C,-3.
 5981086182,0.7377270354,-0.0050638403\H,-6.1127418608,-0.4249468771,1.
 468114593\H,-6.9083138728,1.2499661062,-0.1391258608\\Version=ES64L-G0
 9RevE.01\State=1-A\HF=-847.5205557\RMSD=9.071e-09\RMSF=2.118e-04\Dipol
 e=-0.3762413,-0.0000137,0.0000212\Quadrupole=8.7888007,3.0493893,-11.8
 3819,0.0000595,-0.0002206,0.0546793\PG=C01 [X(C22H16)]\\@


 IT IS BY LOGIC THAT WE PROVE, BUT BY INTUITION THAT WE DISCOVER.
     -- J.H.POINCARE (1854-1912)
 Job cpu time:       0 days 11 hours  9 minutes 21.4 seconds.
 File lengths (MBytes):  RWF=    476 Int=      0 D2E=      0 Chk=     50 Scr=      1
 Normal termination of Gaussian 09 at Mon Aug 14 21:54:08 2017.
40018.32user 143.22system 27:58.96elapsed 2392%CPU (0avgtext+0avgdata 1871840maxresident)k
311872inputs+4143960outputs (231major+63628782minor)pagefaults 0swaps
