 Entering Gaussian System, Link 0=g09
 Initial command:
 /panfs/roc/msisoft/gaussian/g09.e01_mesabi/g09/l1.exe "/scratch/graha682/4099255.mesabim3.msi.umn.edu/Gau-4337.inp" -scrdir="/scratch/graha682/4099255.mesabim3.msi.umn.edu/"
 Entering Link 1 = /panfs/roc/msisoft/gaussian/g09.e01_mesabi/g09/l1.exe PID=      4338.
  
 Copyright (c) 1988,1990,1992,1993,1995,1998,2003,2009,2015,
            Gaussian, Inc.  All Rights Reserved.
  
 This is part of the Gaussian(R) 09 program.  It is based on
 the Gaussian(R) 03 system (copyright 2003, Gaussian, Inc.),
 the Gaussian(R) 98 system (copyright 1998, Gaussian, Inc.),
 the Gaussian(R) 94 system (copyright 1995, Gaussian, Inc.),
 the Gaussian 92(TM) system (copyright 1992, Gaussian, Inc.),
 the Gaussian 90(TM) system (copyright 1990, Gaussian, Inc.),
 the Gaussian 88(TM) system (copyright 1988, Gaussian, Inc.),
 the Gaussian 86(TM) system (copyright 1986, Carnegie Mellon
 University), and the Gaussian 82(TM) system (copyright 1983,
 Carnegie Mellon University). Gaussian is a federally registered
 trademark of Gaussian, Inc.
  
 This software contains proprietary and confidential information,
 including trade secrets, belonging to Gaussian, Inc.
  
 This software is provided under written license and may be
 used, copied, transmitted, or stored only in accord with that
 written license.
  
 The following legend is applicable only to US Government
 contracts under FAR:
  
                    RESTRICTED RIGHTS LEGEND
  
 Use, reproduction and disclosure by the US Government is
 subject to restrictions as set forth in subparagraphs (a)
 and (c) of the Commercial Computer Software - Restricted
 Rights clause in FAR 52.227-19.
  
 Gaussian, Inc.
 340 Quinnipiac St., Bldg. 40, Wallingford CT 06492
  
  
 ---------------------------------------------------------------
 Warning -- This program may not be used in any manner that
 competes with the business of Gaussian, Inc. or will provide
 assistance to any competitor of Gaussian, Inc.  The licensee
 of this program is prohibited from giving any competitor of
 Gaussian, Inc. access to this program.  By using this program,
 the user acknowledges that Gaussian, Inc. is engaged in the
 business of creating and licensing software in the field of
 computational chemistry and represents and warrants to the
 licensee that it is not a competitor of Gaussian, Inc. and that
 it will not use this program in any manner prohibited above.
 ---------------------------------------------------------------
  

 Cite this work as:
 Gaussian 09, Revision E.01,
 M. J. Frisch, G. W. Trucks, H. B. Schlegel, G. E. Scuseria, 
 M. A. Robb, J. R. Cheeseman, G. Scalmani, V. Barone, B. Mennucci, 
 G. A. Petersson, H. Nakatsuji, M. Caricato, X. Li, H. P. Hratchian, 
 A. F. Izmaylov, J. Bloino, G. Zheng, J. L. Sonnenberg, M. Hada, 
 M. Ehara, K. Toyota, R. Fukuda, J. Hasegawa, M. Ishida, T. Nakajima, 
 Y. Honda, O. Kitao, H. Nakai, T. Vreven, J. A. Montgomery, Jr., 
 J. E. Peralta, F. Ogliaro, M. Bearpark, J. J. Heyd, E. Brothers, 
 K. N. Kudin, V. N. Staroverov, T. Keith, R. Kobayashi, J. Normand, 
 K. Raghavachari, A. Rendell, J. C. Burant, S. S. Iyengar, J. Tomasi, 
 M. Cossi, N. Rega, J. M. Millam, M. Klene, J. E. Knox, J. B. Cross, 
 V. Bakken, C. Adamo, J. Jaramillo, R. Gomperts, R. E. Stratmann, 
 O. Yazyev, A. J. Austin, R. Cammi, C. Pomelli, J. W. Ochterski, 
 R. L. Martin, K. Morokuma, V. G. Zakrzewski, G. A. Voth, 
 P. Salvador, J. J. Dannenberg, S. Dapprich, A. D. Daniels, 
 O. Farkas, J. B. Foresman, J. V. Ortiz, J. Cioslowski, 
 and D. J. Fox, Gaussian, Inc., Wallingford CT, 2013.
 
 ******************************************
 Gaussian 09:  ES64L-G09RevE.01 30-Nov-2015
                19-Aug-2017 
 ******************************************
 %LindaWorkers=in-cn0056
 %NProcShared=24
 Will use up to   24 processors via shared memory.
 %Mem=59800mb
 %chk=201708_augccpVTZ_m06_12Hpentacene.chk
 SetLPE:  input flags=" -workerwait 900 -opt "Tsnet.Node.lindarsharg: ssh " "
 SetLPE:    new flags=" -workerwait 900 -opt "Tsnet.Node.lindarsharg: ssh "  -nodelist 'in-cn0056'"
 Will use up to    1 processors via Linda.
 ------------------------------------------------------------
 # opt=calcfc aug-cc-pvtz nosymm scf=qc geom=connectivity m06
 ------------------------------------------------------------
 1/10=4,14=-1,18=20,19=15,26=3,38=1,57=2/1,3;
 2/9=110,12=2,15=1,17=6,18=5,40=1/2;
 3/5=16,6=1,7=10,11=2,16=1,25=1,30=1,71=2,74=-54,140=1/1,2,3;
 4//1;
 5/5=2,8=3,38=5/8;
 8/6=4,10=90,11=11/1;
 11/6=1,8=1,9=11,15=111,16=1,31=1/1,2,10;
 10/6=1,13=1,31=1/2;
 6/7=2,8=2,9=2,10=2,28=1/1;
 7/10=1,18=20,25=1,30=1/1,2,3,16;
 1/10=4,14=-1,18=20,19=15,26=3/3(2);
 2/9=110,15=1/2;
 99//99;
 2/9=110,15=1/2;
 3/5=16,6=1,7=10,11=2,16=1,25=1,30=1,71=1,74=-54/1,2,3;
 4/5=5,16=3,69=1/1;
 5/5=2,8=3,38=5/8;
 7/30=1/1,2,3,16;
 1/14=-1,18=20,19=15,26=3/3(-5);
 2/9=110,15=1/2;
 6/7=2,8=2,9=2,10=2,19=2,28=1/1;
 99/9=1/99;
 -------------------
 Title Card Required
 -------------------
 Symbolic Z-matrix:
 Charge =  0 Multiplicity = 1
 C                     4.98801   1.40097   0.06875 
 C                     3.72603   0.72511   0.03597 
 C                     3.72603  -0.72511  -0.036 
 C                     4.98801  -1.40097  -0.06876 
 C                     6.14855  -0.71483  -0.03503 
 C                     6.14855   0.71483   0.03503 
 H                     4.98398   2.48338   0.12168 
 H                     4.98398  -2.48338  -0.12169 
 H                     7.0937   -1.24141  -0.06081 
 H                     7.09371   1.2414    0.06081 
 C                     2.53836   1.39976   0.07031 
 C                     1.28967   0.72791   0.03766 
 C                     1.28967  -0.7279   -0.0377 
 C                     2.53836  -1.39975  -0.07035 
 H                     2.54093   2.48355   0.12423 
 H                     2.54092  -2.48355  -0.12426 
 C                     0.09673   1.40198   0.07459 
 C                    -1.15147   0.73132   0.04134 
 C                    -1.15148  -0.73131  -0.0414 
 C                     0.09672  -1.40198  -0.07465 
 H                     0.09938   2.48557   0.12956 
 H                     0.09938  -2.48557  -0.12961 
 C                    -2.34004   1.40757   0.0653 
 C                    -2.34004  -1.40756  -0.06535 
 H                    -2.33592   2.49216   0.09507 
 H                    -2.33593  -2.49215  -0.09516 
 C                    -4.76776   1.40107  -0.15925 
 C                    -6.0317    0.64916  -0.38963 
 C                    -6.03169  -0.64917   0.38979 
 C                    -4.76774  -1.40106   0.15933 
 H                    -4.76215   2.4827   -0.22929 
 H                    -6.1113    0.42481  -1.46792 
 H                    -6.90686  -1.25      0.13928 
 H                    -4.76212  -2.4827    0.22939 
 C                    -3.59667  -0.73773   0.00508 
 C                    -3.59666   0.73775  -0.00508 
 H                    -6.1113   -0.42492   1.4681 
 H                    -6.90687   1.24999  -0.13914 
 

 GradGradGradGradGradGradGradGradGradGradGradGradGradGradGradGradGradGrad
 Berny optimization.
 Initialization pass.
                           ----------------------------
                           !    Initial Parameters    !
                           ! (Angstroms and Degrees)  !
 --------------------------                            --------------------------
 ! Name  Definition              Value          Derivative Info.                !
 --------------------------------------------------------------------------------
 ! R1    R(1,2)                  1.4319         calculate D2E/DX2 analytically  !
 ! R2    R(1,6)                  1.3486         calculate D2E/DX2 analytically  !
 ! R3    R(1,7)                  1.0837         calculate D2E/DX2 analytically  !
 ! R4    R(2,3)                  1.452          calculate D2E/DX2 analytically  !
 ! R5    R(2,11)                 1.3663         calculate D2E/DX2 analytically  !
 ! R6    R(3,4)                  1.4319         calculate D2E/DX2 analytically  !
 ! R7    R(3,14)                 1.3663         calculate D2E/DX2 analytically  !
 ! R8    R(4,5)                  1.3486         calculate D2E/DX2 analytically  !
 ! R9    R(4,8)                  1.0837         calculate D2E/DX2 analytically  !
 ! R10   R(5,6)                  1.4314         calculate D2E/DX2 analytically  !
 ! R11   R(5,9)                  1.0822         calculate D2E/DX2 analytically  !
 ! R12   R(6,10)                 1.0822         calculate D2E/DX2 analytically  !
 ! R13   R(11,12)                1.4183         calculate D2E/DX2 analytically  !
 ! R14   R(11,15)                1.0851         calculate D2E/DX2 analytically  !
 ! R15   R(12,13)                1.4578         calculate D2E/DX2 analytically  !
 ! R16   R(12,17)                1.3707         calculate D2E/DX2 analytically  !
 ! R17   R(13,14)                1.4183         calculate D2E/DX2 analytically  !
 ! R18   R(13,20)                1.3707         calculate D2E/DX2 analytically  !
 ! R19   R(14,16)                1.0851         calculate D2E/DX2 analytically  !
 ! R20   R(17,18)                1.4174         calculate D2E/DX2 analytically  !
 ! R21   R(17,21)                1.085          calculate D2E/DX2 analytically  !
 ! R22   R(18,19)                1.465          calculate D2E/DX2 analytically  !
 ! R23   R(18,23)                1.3677         calculate D2E/DX2 analytically  !
 ! R24   R(19,20)                1.4174         calculate D2E/DX2 analytically  !
 ! R25   R(19,24)                1.3677         calculate D2E/DX2 analytically  !
 ! R26   R(20,22)                1.085          calculate D2E/DX2 analytically  !
 ! R27   R(23,25)                1.085          calculate D2E/DX2 analytically  !
 ! R28   R(23,36)                1.4257         calculate D2E/DX2 analytically  !
 ! R29   R(24,26)                1.085          calculate D2E/DX2 analytically  !
 ! R30   R(24,35)                1.4257         calculate D2E/DX2 analytically  !
 ! R31   R(27,28)                1.4886         calculate D2E/DX2 analytically  !
 ! R32   R(27,31)                1.0839         calculate D2E/DX2 analytically  !
 ! R33   R(27,36)                1.3547         calculate D2E/DX2 analytically  !
 ! R34   R(28,29)                1.5143         calculate D2E/DX2 analytically  !
 ! R35   R(28,32)                1.1043         calculate D2E/DX2 analytically  !
 ! R36   R(28,38)                1.0907         calculate D2E/DX2 analytically  !
 ! R37   R(29,30)                1.4886         calculate D2E/DX2 analytically  !
 ! R38   R(29,33)                1.0907         calculate D2E/DX2 analytically  !
 ! R39   R(29,37)                1.1042         calculate D2E/DX2 analytically  !
 ! R40   R(30,34)                1.0839         calculate D2E/DX2 analytically  !
 ! R41   R(30,35)                1.3547         calculate D2E/DX2 analytically  !
 ! R42   R(35,36)                1.4755         calculate D2E/DX2 analytically  !
 ! A1    A(2,1,6)              121.1777         calculate D2E/DX2 analytically  !
 ! A2    A(2,1,7)              117.9865         calculate D2E/DX2 analytically  !
 ! A3    A(6,1,7)              120.8358         calculate D2E/DX2 analytically  !
 ! A4    A(1,2,3)              118.1995         calculate D2E/DX2 analytically  !
 ! A5    A(1,2,11)             122.1702         calculate D2E/DX2 analytically  !
 ! A6    A(3,2,11)             119.6303         calculate D2E/DX2 analytically  !
 ! A7    A(2,3,4)              118.1995         calculate D2E/DX2 analytically  !
 ! A8    A(2,3,14)             119.6303         calculate D2E/DX2 analytically  !
 ! A9    A(4,3,14)             122.1702         calculate D2E/DX2 analytically  !
 ! A10   A(3,4,5)              121.1777         calculate D2E/DX2 analytically  !
 ! A11   A(3,4,8)              117.9865         calculate D2E/DX2 analytically  !
 ! A12   A(5,4,8)              120.8358         calculate D2E/DX2 analytically  !
 ! A13   A(4,5,6)              120.6228         calculate D2E/DX2 analytically  !
 ! A14   A(4,5,9)              120.2245         calculate D2E/DX2 analytically  !
 ! A15   A(6,5,9)              119.1528         calculate D2E/DX2 analytically  !
 ! A16   A(1,6,5)              120.6227         calculate D2E/DX2 analytically  !
 ! A17   A(1,6,10)             120.2245         calculate D2E/DX2 analytically  !
 ! A18   A(5,6,10)             119.1528         calculate D2E/DX2 analytically  !
 ! A19   A(2,11,12)            122.0592         calculate D2E/DX2 analytically  !
 ! A20   A(2,11,15)            119.4949         calculate D2E/DX2 analytically  !
 ! A21   A(12,11,15)           118.4459         calculate D2E/DX2 analytically  !
 ! A22   A(11,12,13)           118.3103         calculate D2E/DX2 analytically  !
 ! A23   A(11,12,17)           122.1843         calculate D2E/DX2 analytically  !
 ! A24   A(13,12,17)           119.5054         calculate D2E/DX2 analytically  !
 ! A25   A(12,13,14)           118.3103         calculate D2E/DX2 analytically  !
 ! A26   A(12,13,20)           119.5054         calculate D2E/DX2 analytically  !
 ! A27   A(14,13,20)           122.1843         calculate D2E/DX2 analytically  !
 ! A28   A(3,14,13)            122.0593         calculate D2E/DX2 analytically  !
 ! A29   A(3,14,16)            119.4948         calculate D2E/DX2 analytically  !
 ! A30   A(13,14,16)           118.4459         calculate D2E/DX2 analytically  !
 ! A31   A(12,17,18)           122.2159         calculate D2E/DX2 analytically  !
 ! A32   A(12,17,21)           119.3653         calculate D2E/DX2 analytically  !
 ! A33   A(18,17,21)           118.4187         calculate D2E/DX2 analytically  !
 ! A34   A(17,18,19)           118.2781         calculate D2E/DX2 analytically  !
 ! A35   A(17,18,23)           122.0691         calculate D2E/DX2 analytically  !
 ! A36   A(19,18,23)           119.6464         calculate D2E/DX2 analytically  !
 ! A37   A(18,19,20)           118.278          calculate D2E/DX2 analytically  !
 ! A38   A(18,19,24)           119.6465         calculate D2E/DX2 analytically  !
 ! A39   A(20,19,24)           122.0691         calculate D2E/DX2 analytically  !
 ! A40   A(13,20,19)           122.2159         calculate D2E/DX2 analytically  !
 ! A41   A(13,20,22)           119.3652         calculate D2E/DX2 analytically  !
 ! A42   A(19,20,22)           118.4188         calculate D2E/DX2 analytically  !
 ! A43   A(18,23,25)           119.4352         calculate D2E/DX2 analytically  !
 ! A44   A(18,23,36)           122.1943         calculate D2E/DX2 analytically  !
 ! A45   A(25,23,36)           118.3156         calculate D2E/DX2 analytically  !
 ! A46   A(19,24,26)           119.4353         calculate D2E/DX2 analytically  !
 ! A47   A(19,24,35)           122.1943         calculate D2E/DX2 analytically  !
 ! A48   A(26,24,35)           118.3156         calculate D2E/DX2 analytically  !
 ! A49   A(28,27,31)           119.8966         calculate D2E/DX2 analytically  !
 ! A50   A(28,27,36)           120.2839         calculate D2E/DX2 analytically  !
 ! A51   A(31,27,36)           119.4385         calculate D2E/DX2 analytically  !
 ! A52   A(27,28,29)           110.6954         calculate D2E/DX2 analytically  !
 ! A53   A(27,28,32)           108.3574         calculate D2E/DX2 analytically  !
 ! A54   A(27,28,38)           111.561          calculate D2E/DX2 analytically  !
 ! A55   A(29,28,32)           109.1725         calculate D2E/DX2 analytically  !
 ! A56   A(29,28,38)           110.7382         calculate D2E/DX2 analytically  !
 ! A57   A(32,28,38)           106.1603         calculate D2E/DX2 analytically  !
 ! A58   A(28,29,30)           110.6935         calculate D2E/DX2 analytically  !
 ! A59   A(28,29,33)           110.7364         calculate D2E/DX2 analytically  !
 ! A60   A(28,29,37)           109.1773         calculate D2E/DX2 analytically  !
 ! A61   A(30,29,33)           111.5603         calculate D2E/DX2 analytically  !
 ! A62   A(30,29,37)           108.3584         calculate D2E/DX2 analytically  !
 ! A63   A(33,29,37)           106.1592         calculate D2E/DX2 analytically  !
 ! A64   A(29,30,34)           119.896          calculate D2E/DX2 analytically  !
 ! A65   A(29,30,35)           120.2845         calculate D2E/DX2 analytically  !
 ! A66   A(34,30,35)           119.4384         calculate D2E/DX2 analytically  !
 ! A67   A(24,35,30)           122.5137         calculate D2E/DX2 analytically  !
 ! A68   A(24,35,36)           117.9989         calculate D2E/DX2 analytically  !
 ! A69   A(30,35,36)           119.3683         calculate D2E/DX2 analytically  !
 ! A70   A(23,36,27)           122.5142         calculate D2E/DX2 analytically  !
 ! A71   A(23,36,35)           117.9992         calculate D2E/DX2 analytically  !
 ! A72   A(27,36,35)           119.3676         calculate D2E/DX2 analytically  !
 ! D1    D(6,1,2,3)             -0.0517         calculate D2E/DX2 analytically  !
 ! D2    D(6,1,2,11)           179.942          calculate D2E/DX2 analytically  !
 ! D3    D(7,1,2,3)            179.9527         calculate D2E/DX2 analytically  !
 ! D4    D(7,1,2,11)            -0.0536         calculate D2E/DX2 analytically  !
 ! D5    D(2,1,6,5)              0.0113         calculate D2E/DX2 analytically  !
 ! D6    D(2,1,6,10)          -179.985          calculate D2E/DX2 analytically  !
 ! D7    D(7,1,6,5)           -179.9933         calculate D2E/DX2 analytically  !
 ! D8    D(7,1,6,10)             0.0105         calculate D2E/DX2 analytically  !
 ! D9    D(1,2,3,4)              0.0704         calculate D2E/DX2 analytically  !
 ! D10   D(1,2,3,14)          -179.9234         calculate D2E/DX2 analytically  !
 ! D11   D(11,2,3,4)          -179.9234         calculate D2E/DX2 analytically  !
 ! D12   D(11,2,3,14)            0.0827         calculate D2E/DX2 analytically  !
 ! D13   D(1,2,11,12)          179.9965         calculate D2E/DX2 analytically  !
 ! D14   D(1,2,11,15)           -0.0016         calculate D2E/DX2 analytically  !
 ! D15   D(3,2,11,12)           -0.0099         calculate D2E/DX2 analytically  !
 ! D16   D(3,2,11,15)          179.992          calculate D2E/DX2 analytically  !
 ! D17   D(2,3,4,5)             -0.0517         calculate D2E/DX2 analytically  !
 ! D18   D(2,3,4,8)            179.9527         calculate D2E/DX2 analytically  !
 ! D19   D(14,3,4,5)           179.942          calculate D2E/DX2 analytically  !
 ! D20   D(14,3,4,8)            -0.0536         calculate D2E/DX2 analytically  !
 ! D21   D(2,3,14,13)           -0.0098         calculate D2E/DX2 analytically  !
 ! D22   D(2,3,14,16)          179.9922         calculate D2E/DX2 analytically  !
 ! D23   D(4,3,14,13)          179.9965         calculate D2E/DX2 analytically  !
 ! D24   D(4,3,14,16)           -0.0014         calculate D2E/DX2 analytically  !
 ! D25   D(3,4,5,6)              0.0113         calculate D2E/DX2 analytically  !
 ! D26   D(3,4,5,9)           -179.985          calculate D2E/DX2 analytically  !
 ! D27   D(8,4,5,6)           -179.9933         calculate D2E/DX2 analytically  !
 ! D28   D(8,4,5,9)              0.0105         calculate D2E/DX2 analytically  !
 ! D29   D(4,5,6,1)              0.0101         calculate D2E/DX2 analytically  !
 ! D30   D(4,5,6,10)          -179.9936         calculate D2E/DX2 analytically  !
 ! D31   D(9,5,6,1)           -179.9936         calculate D2E/DX2 analytically  !
 ! D32   D(9,5,6,10)             0.0027         calculate D2E/DX2 analytically  !
 ! D33   D(2,11,12,13)          -0.1288         calculate D2E/DX2 analytically  !
 ! D34   D(2,11,12,17)         179.8705         calculate D2E/DX2 analytically  !
 ! D35   D(15,11,12,13)        179.8693         calculate D2E/DX2 analytically  !
 ! D36   D(15,11,12,17)         -0.1313         calculate D2E/DX2 analytically  !
 ! D37   D(11,12,13,14)          0.1952         calculate D2E/DX2 analytically  !
 ! D38   D(11,12,13,20)       -179.8043         calculate D2E/DX2 analytically  !
 ! D39   D(17,12,13,14)       -179.8042         calculate D2E/DX2 analytically  !
 ! D40   D(17,12,13,20)          0.1963         calculate D2E/DX2 analytically  !
 ! D41   D(11,12,17,18)        179.9685         calculate D2E/DX2 analytically  !
 ! D42   D(11,12,17,21)          0.0682         calculate D2E/DX2 analytically  !
 ! D43   D(13,12,17,18)         -0.0321         calculate D2E/DX2 analytically  !
 ! D44   D(13,12,17,21)       -179.9325         calculate D2E/DX2 analytically  !
 ! D45   D(12,13,14,3)          -0.1288         calculate D2E/DX2 analytically  !
 ! D46   D(12,13,14,16)        179.8691         calculate D2E/DX2 analytically  !
 ! D47   D(20,13,14,3)         179.8706         calculate D2E/DX2 analytically  !
 ! D48   D(20,13,14,16)         -0.1314         calculate D2E/DX2 analytically  !
 ! D49   D(12,13,20,19)         -0.0325         calculate D2E/DX2 analytically  !
 ! D50   D(12,13,20,22)       -179.9322         calculate D2E/DX2 analytically  !
 ! D51   D(14,13,20,19)        179.9681         calculate D2E/DX2 analytically  !
 ! D52   D(14,13,20,22)          0.0684         calculate D2E/DX2 analytically  !
 ! D53   D(12,17,18,19)         -0.2797         calculate D2E/DX2 analytically  !
 ! D54   D(12,17,18,23)       -179.3542         calculate D2E/DX2 analytically  !
 ! D55   D(21,17,18,19)        179.6216         calculate D2E/DX2 analytically  !
 ! D56   D(21,17,18,23)          0.547          calculate D2E/DX2 analytically  !
 ! D57   D(17,18,19,20)          0.4293         calculate D2E/DX2 analytically  !
 ! D58   D(17,18,19,24)        179.5266         calculate D2E/DX2 analytically  !
 ! D59   D(23,18,19,20)        179.527          calculate D2E/DX2 analytically  !
 ! D60   D(23,18,19,24)         -1.3757         calculate D2E/DX2 analytically  !
 ! D61   D(17,18,23,25)          0.9773         calculate D2E/DX2 analytically  !
 ! D62   D(17,18,23,36)        178.2381         calculate D2E/DX2 analytically  !
 ! D63   D(19,18,23,25)       -178.085          calculate D2E/DX2 analytically  !
 ! D64   D(19,18,23,36)         -0.8242         calculate D2E/DX2 analytically  !
 ! D65   D(18,19,20,13)         -0.2793         calculate D2E/DX2 analytically  !
 ! D66   D(18,19,20,22)        179.6212         calculate D2E/DX2 analytically  !
 ! D67   D(24,19,20,13)       -179.3535         calculate D2E/DX2 analytically  !
 ! D68   D(24,19,20,22)          0.5471         calculate D2E/DX2 analytically  !
 ! D69   D(18,19,24,26)       -178.0871         calculate D2E/DX2 analytically  !
 ! D70   D(18,19,24,35)         -0.8263         calculate D2E/DX2 analytically  !
 ! D71   D(20,19,24,26)          0.9748         calculate D2E/DX2 analytically  !
 ! D72   D(20,19,24,35)        178.2356         calculate D2E/DX2 analytically  !
 ! D73   D(18,23,36,27)       -171.0807         calculate D2E/DX2 analytically  !
 ! D74   D(18,23,36,35)          4.9253         calculate D2E/DX2 analytically  !
 ! D75   D(25,23,36,27)          6.2095         calculate D2E/DX2 analytically  !
 ! D76   D(25,23,36,35)       -177.7845         calculate D2E/DX2 analytically  !
 ! D77   D(19,24,35,30)       -171.0767         calculate D2E/DX2 analytically  !
 ! D78   D(19,24,35,36)          4.9273         calculate D2E/DX2 analytically  !
 ! D79   D(26,24,35,30)          6.2135         calculate D2E/DX2 analytically  !
 ! D80   D(26,24,35,36)       -177.7825         calculate D2E/DX2 analytically  !
 ! D81   D(31,27,28,29)       -151.4955         calculate D2E/DX2 analytically  !
 ! D82   D(31,27,28,32)         88.8183         calculate D2E/DX2 analytically  !
 ! D83   D(31,27,28,38)        -27.6966         calculate D2E/DX2 analytically  !
 ! D84   D(36,27,28,29)         35.629          calculate D2E/DX2 analytically  !
 ! D85   D(36,27,28,32)        -84.0572         calculate D2E/DX2 analytically  !
 ! D86   D(36,27,28,38)        159.4278         calculate D2E/DX2 analytically  !
 ! D87   D(28,27,36,23)        172.6758         calculate D2E/DX2 analytically  !
 ! D88   D(28,27,36,35)         -3.2776         calculate D2E/DX2 analytically  !
 ! D89   D(31,27,36,23)         -0.2323         calculate D2E/DX2 analytically  !
 ! D90   D(31,27,36,35)       -176.1857         calculate D2E/DX2 analytically  !
 ! D91   D(27,28,29,30)        -49.6397         calculate D2E/DX2 analytically  !
 ! D92   D(27,28,29,33)       -173.9063         calculate D2E/DX2 analytically  !
 ! D93   D(27,28,29,37)         69.5589         calculate D2E/DX2 analytically  !
 ! D94   D(32,28,29,30)         69.5558         calculate D2E/DX2 analytically  !
 ! D95   D(32,28,29,33)        -54.7108         calculate D2E/DX2 analytically  !
 ! D96   D(32,28,29,37)       -171.2456         calculate D2E/DX2 analytically  !
 ! D97   D(38,28,29,30)       -173.9098         calculate D2E/DX2 analytically  !
 ! D98   D(38,28,29,33)         61.8236         calculate D2E/DX2 analytically  !
 ! D99   D(38,28,29,37)        -54.7112         calculate D2E/DX2 analytically  !
 ! D100  D(28,29,30,34)       -151.4977         calculate D2E/DX2 analytically  !
 ! D101  D(28,29,30,35)         35.6277         calculate D2E/DX2 analytically  !
 ! D102  D(33,29,30,34)        -27.7032         calculate D2E/DX2 analytically  !
 ! D103  D(33,29,30,35)        159.4223         calculate D2E/DX2 analytically  !
 ! D104  D(37,29,30,34)         88.8107         calculate D2E/DX2 analytically  !
 ! D105  D(37,29,30,35)        -84.0638         calculate D2E/DX2 analytically  !
 ! D106  D(29,30,35,24)        172.6743         calculate D2E/DX2 analytically  !
 ! D107  D(29,30,35,36)         -3.277          calculate D2E/DX2 analytically  !
 ! D108  D(34,30,35,24)         -0.2328         calculate D2E/DX2 analytically  !
 ! D109  D(34,30,35,36)       -176.1841         calculate D2E/DX2 analytically  !
 ! D110  D(24,35,36,23)         -6.8326         calculate D2E/DX2 analytically  !
 ! D111  D(24,35,36,27)        169.303          calculate D2E/DX2 analytically  !
 ! D112  D(30,35,36,23)        169.301          calculate D2E/DX2 analytically  !
 ! D113  D(30,35,36,27)        -14.5633         calculate D2E/DX2 analytically  !
 --------------------------------------------------------------------------------
 Trust Radius=3.00D-01 FncErr=1.00D-07 GrdErr=1.00D-06
 Number of steps in this run=    228 maximum allowed number of steps=    228.
 GradGradGradGradGradGradGradGradGradGradGradGradGradGradGradGradGradGrad

                          Input orientation:                          
 ---------------------------------------------------------------------
 Center     Atomic      Atomic             Coordinates (Angstroms)
 Number     Number       Type             X           Y           Z
 ---------------------------------------------------------------------
      1          6           0        4.988009    1.400965    0.068746
      2          6           0        3.726027    0.725105    0.035974
      3          6           0        3.726025   -0.725107   -0.035999
      4          6           0        4.988006   -1.400970   -0.068759
      5          6           0        6.148553   -0.714833   -0.035029
      6          6           0        6.148555    0.714825    0.035027
      7          1           0        4.983980    2.483376    0.121677
      8          1           0        4.983975   -2.483381   -0.121690
      9          1           0        7.093703   -1.241409   -0.060805
     10          1           0        7.093706    1.241398    0.060813
     11          6           0        2.538359    1.399755    0.070309
     12          6           0        1.289668    0.727905    0.037655
     13          6           0        1.289666   -0.727901   -0.037703
     14          6           0        2.538356   -1.399754   -0.070345
     15          1           0        2.540925    2.483550    0.124227
     16          1           0        2.540921   -2.483549   -0.124260
     17          6           0        0.096726    1.401982    0.074590
     18          6           0       -1.151473    0.731317    0.041337
     19          6           0       -1.151476   -0.731308   -0.041396
     20          6           0        0.096723   -1.401975   -0.074647
     21          1           0        0.099377    2.485573    0.129561
     22          1           0        0.099375   -2.485567   -0.129612
     23          6           0       -2.340039    1.407568    0.065299
     24          6           0       -2.340042   -1.407557   -0.065352
     25          1           0       -2.335920    2.492163    0.095068
     26          1           0       -2.335926   -2.492151   -0.095156
     27          6           0       -4.767759    1.401065   -0.159248
     28          6           0       -6.031704    0.649157   -0.389625
     29          6           0       -6.031694   -0.649172    0.389794
     30          6           0       -4.767744   -1.401060    0.159332
     31          1           0       -4.762147    2.482701   -0.229287
     32          1           0       -6.111304    0.424814   -1.467916
     33          1           0       -6.906856   -1.250003    0.139279
     34          1           0       -4.762115   -2.482695    0.229394
     35          6           0       -3.596667   -0.737733    0.005079
     36          6           0       -3.596664    0.737746   -0.005081
     37          1           0       -6.111300   -0.424922    1.468097
     38          1           0       -6.906868    1.249992   -0.139143
 ---------------------------------------------------------------------
                    Distance matrix (angstroms):
                    1          2          3          4          5
     1  C    0.000000
     2  C    1.431942   0.000000
     3  C    2.474623   1.451997   0.000000
     4  C    2.805307   2.474622   1.431943   0.000000
     5  C    2.415416   2.819059   2.422550   1.348626   0.000000
     6  C    1.348626   2.422550   2.819060   2.415416   1.431373
     7  H    1.083712   2.163633   3.449881   3.889013   3.407246
     8  H    3.889013   3.449880   2.163633   1.083712   2.119319
     9  H    3.381253   3.900998   3.407116   2.111749   1.082245
    10  H    2.111749   3.407116   3.900999   3.381253   2.174704
    11  C    2.449651   1.366341   2.436574   3.723462   4.185222
    12  C    3.759216   2.436361   2.837693   4.268622   5.069077
    13  C    4.268623   2.837694   2.436361   3.759216   4.858905
    14  C    3.723463   2.436574   1.366340   2.449651   3.674763
    15  H    2.676432   2.122353   3.424268   4.595100   4.823898
    16  H    4.595100   3.424268   2.122352   2.676431   4.018871
    17  C    4.891287   3.692083   4.208153   5.639300   6.412295
    18  C    6.175955   4.877507   5.090888   6.500152   7.442282
    19  C    6.500153   5.090890   4.877508   6.175956   7.300050
    20  C    5.639301   4.208153   3.692083   4.891287   6.090844
    21  H    5.007873   4.032443   4.846489   6.248459   6.845598
    22  H    6.248457   4.846487   4.032440   5.007870   6.303729
    23  C    7.328052   6.104406   6.430839   7.848955   8.750477
    24  C    7.848956   6.430840   6.104406   7.328052   8.516867
    25  H    7.404819   6.314522   6.864050   8.295976   9.071275
    26  H    8.295977   6.864052   6.314522   7.404820   8.668844
    27  C    9.758432   8.522877   8.756721  10.150593  11.120176
    28  C   11.054836   9.767303   9.860372  11.213384  12.261520
    29  C   11.213384   9.860372   9.767300  11.054830  12.187830
    30  C   10.150580   8.756708   8.522862   9.758416  10.939571
    31  H    9.814506   8.672289   9.076148  10.496388  11.371250
    32  H   11.247620   9.956151  10.007285  11.335158  12.395808
    33  H   12.186895  10.815263  10.647272  11.897639  13.067536
    34  H   10.496358   9.076120   8.672259   9.814473  11.056126
    35  C    8.847302   7.467442   7.322818   8.610572   9.745329
    36  C    8.610570   7.322817   7.467441   8.847300   9.852925
    37  H   11.335198  10.007324   9.956173  11.247630  12.355057
    38  H   11.897651  10.647283  10.815270  12.186902  13.202856
                    6          7          8          9         10
     6  C    0.000000
     7  H    2.119320   0.000000
     8  H    3.407246   4.972716   0.000000
     9  H    2.174705   4.284653   2.448909   0.000000
    10  H    1.082245   2.448909   4.284653   2.485784   0.000000
    11  C    3.674764   2.675432   4.593109   5.267267   4.558109
    12  C    4.858905   4.091049   4.897515   6.129822   5.826755
    13  C    5.069078   4.897515   4.091049   5.826755   6.129823
    14  C    4.185222   4.593109   2.675432   4.558108   5.267267
    15  H    4.018873   2.443056   5.540701   5.885350   4.719616
    16  H    4.823898   5.540701   2.443055   4.719615   5.885349
    17  C    6.090844   5.005685   6.246581   7.480878   6.998836
    18  C    7.300049   6.381218   6.928534   8.478503   8.260965
    19  C    7.442284   6.928536   6.381220   8.260966   8.478505
    20  C    6.412296   6.246581   5.005685   6.998836   7.480878
    21  H    6.303732   4.884610   6.972297   7.927625   7.104459
    22  H    6.845597   6.972296   4.884607   7.104455   7.927622
    23  C    8.516868   7.402823   8.295519   9.799412   9.435209
    24  C    8.750478   8.295519   7.402824   9.435209   9.799412
    25  H    8.668844   7.319954   8.853467  10.143059   9.512278
    26  H    9.071277   8.853469   7.319954   9.512278  10.143060
    27  C   10.939588   9.815637  10.496983  12.152639  11.864581
    28  C   12.187836  11.179047  11.455556  13.264941  13.146484
    29  C   12.261518  11.455558  11.179039  13.146476  13.264939
    30  C   11.120162  10.496970   9.815621  11.864564  12.152625
    31  H   11.056160   9.752444  10.938942  12.428136  11.924187
    32  H   12.355043  11.396044  11.548815  13.383888  13.318262
    33  H   13.202847  12.463162  11.957474  14.001991  14.220723
    34  H   11.371219  10.938914   9.752412  11.924153  12.428104
    35  C    9.852927   9.166059   8.757327  10.702432  10.872173
    36  C    9.745328   8.757325   9.166058  10.872171  10.702430
    37  H   12.395836  11.548865  11.396043  13.318269  13.383918
    38  H   13.067548  11.957488  12.463167  14.220731  14.002004
                   11         12         13         14         15
    11  C    0.000000
    12  C    1.418336   0.000000
    13  C    2.469377   1.457755   0.000000
    14  C    2.803040   2.469376   1.418337   0.000000
    15  H    1.085138   2.157644   3.450404   3.888176   0.000000
    16  H    3.888176   3.450404   2.157645   1.085138   4.973311
    17  C    2.441638   1.370713   2.443792   3.719178   2.673268
    18  C    3.750001   2.441146   2.845123   4.262485   4.087908
    19  C    4.262486   2.845125   2.441147   3.750002   4.898629
    20  C    3.719179   2.443792   1.370713   2.441638   4.594669
    21  H    2.670420   2.124767   3.430915   4.591769   2.441555
    22  H    4.591769   3.430915   2.124766   2.670418   5.542357
    23  C    4.878407   3.692896   4.212552   5.630115   4.998502
    24  C    5.630116   4.212553   3.692895   4.878407   6.245037
    25  H    4.995254   4.032467   4.850909   6.239627   4.876940
    26  H    6.239629   4.850910   4.032468   4.995255   6.970610
    27  C    7.309724   6.097896   6.421812   7.825076   7.393848
    28  C    8.615156   7.334252   7.458056   8.817364   8.781743
    29  C    8.817368   7.458062   7.334253   8.615153   9.130951
    30  C    7.825064   6.421802   6.097883   7.309709   8.276960
    31  H    7.386469   6.306745   6.853401   8.270191   7.311623
    32  H    8.839305   7.558637   7.625524   8.949797   9.035175
    33  H    9.810100   8.432405   8.215040   9.448725  10.158750
    34  H    8.270166   6.853378   6.306718   7.386439   8.832273
    35  C    6.497050   5.101512   4.886530   6.171099   6.932597
    36  C    6.171098   4.886529   5.101510   6.497048   6.382362
    37  H    8.949852   7.625582   7.558672   8.839324   9.226386
    38  H    9.448736   8.215049   8.432409   9.810104   9.531622
                   16         17         18         19         20
    16  H    0.000000
    17  C    4.594669   0.000000
    18  C    4.898628   1.417356   0.000000
    19  C    4.087910   2.474346   1.464963   0.000000
    20  C    2.673269   2.807926   2.474344   1.417357   0.000000
    21  H    5.542358   1.084988   2.156345   3.455746   3.892909
    22  H    2.441553   3.892909   3.455747   2.156348   1.084988
    23  C    6.245038   2.436789   1.367691   2.449256   3.721683
    24  C    4.998503   3.721684   2.449257   1.367690   2.436789
    25  H    6.970609   2.665836   2.122824   3.436902   4.594656
    26  H    4.876941   4.594658   3.436903   2.122824   2.665837
    27  C    8.276971   4.870102   3.683249   4.199810   5.614924
    28  C    9.130945   6.191922   4.899912   5.083657   6.470237
    29  C    8.781738   6.470249   5.083673   4.899918   6.191923
    30  C    7.393835   5.614917   4.199806   3.683240   4.870091
    31  H    8.832297   4.986877   4.022133   4.837572   6.222800
    32  H    9.226320   6.470998   5.193430   5.288806   6.619513
    33  H    9.531609   7.489150   6.087664   5.781530   7.008493
    34  H    7.311594   6.222782   4.837559   4.022114   4.986853
    35  C    6.382365   4.269000   2.852787   2.445641   3.753492
    36  C    6.932597   3.753490   2.445640   2.852785   4.268999
    37  H    9.035180   6.619594   5.288896   5.193486   6.471031
    38  H   10.158753   7.008503   5.781537   6.087663   7.489151
                   21         22         23         24         25
    21  H    0.000000
    22  H    4.977891   0.000000
    23  C    2.667766   4.598394   0.000000
    24  C    4.598393   2.667769   2.818155   0.000000
    25  H    2.435550   5.546074   1.085011   3.903020   0.000000
    26  H    5.546074   2.435554   3.903021   1.085011   4.987943
    27  C    4.994855   6.228626   2.438091   3.713621   2.677501
    28  C    6.421225   6.890880   3.796121   4.238348   4.158175
    29  C    6.890891   6.421225   4.238372   3.796130   4.859382
    30  C    6.228617   4.994846   3.713622   2.438086   4.590761
    31  H    4.874751   6.951836   2.666327   4.585583   2.447830
    32  H    6.735816   6.988126   4.187958   4.421220   4.579342
    33  H    7.939894   7.119424   5.284314   4.574111   5.907556
    34  H    6.951817   4.874729   4.585578   2.666315   5.536576
    35  C    4.905705   4.090696   2.486977   1.425739   3.468402
    36  C    4.090690   4.905707   1.425735   2.486977   2.162749
    37  H    6.988216   6.735831   4.421343   4.188010   4.964684
    38  H    7.119433   7.939895   4.574118   5.284308   4.742511
                   26         27         28         29         30
    26  H    0.000000
    27  C    4.590757   0.000000
    28  C    4.859352   1.488622   0.000000
    29  C    4.158179   2.470314   1.514316   0.000000
    30  C    2.677496   2.820177   2.470291   1.488630   0.000000
    31  H    5.536578   1.083916   2.235926   3.435642   3.903160
    32  H    4.964538   2.114425   1.104254   2.147294   2.790503
    33  H    4.742499   3.419505   2.156951   1.090717   2.144533
    34  H    2.447818   3.903161   3.435628   2.235926   1.083916
    35  C    2.162752   2.443955   2.829958   2.466821   1.354702
    36  C    3.468401   1.354704   2.466808   2.829989   2.443962
    37  H    4.579372   2.790624   2.147350   1.104247   2.114439
    38  H    5.907544   2.144531   1.090714   2.156972   3.419505
                   31         32         33         34         35
    31  H    0.000000
    32  H    2.754873   0.000000
    33  H    4.320729   2.453771   0.000000
    34  H    4.986536   3.626952   2.475392   0.000000
    35  C    3.432851   3.137615   3.352280   2.110327   0.000000
    36  C    2.110329   2.925957   3.863853   3.432855   1.475514
    37  H    3.627065   3.056505   1.754829   2.754835   2.926030
    38  H    2.475384   1.754844   2.515451   4.320733   3.863843
                   36         37         38
    36  C    0.000000
    37  H    3.137745   0.000000
    38  H    3.352286   2.453872   0.000000
 Symmetry turned off by external request.
 Stoichiometry    C22H16
 Framework group  C1[X(C22H16)]
 Deg. of freedom   108
 Full point group                 C1      NOp   1
 Rotational constants (GHZ):      1.3027939      0.1168084      0.1076294
 Standard basis: Aug-CC-pVTZ (5D, 7F)
  1380 basis functions,  2016 primitive gaussians,  1610 cartesian basis functions
    74 alpha electrons       74 beta electrons
       nuclear repulsion energy      1533.1986970406 Hartrees.
 NAtoms=   38 NActive=   38 NUniq=   38 SFac= 1.00D+00 NAtFMM=   60 NAOKFM=F Big=F
 Integral buffers will be    131072 words long.
 Raffenetti 2 integral format.
 Two-electron integral symmetry is turned off.
 One-electron integrals computed using PRISM.
 NBasis=  1380 RedAO= T EigKep=  1.07D-06  NBF=  1380
 NBsUse=  1356 1.00D-06 EigRej=  9.49D-07 NBFU=  1356
 ExpMin= 2.53D-02 ExpMax= 8.24D+03 ExpMxC= 2.81D+02 IAcc=3 IRadAn=         5 AccDes= 0.00D+00
 Harris functional with IExCor= 1009 and IRadAn=       5 diagonalized for initial guess.
 HarFok:  IExCor= 1009 AccDes= 0.00D+00 IRadAn=         5 IDoV= 1 UseB2=F ITyADJ=14
 ICtDFT=  3500011 ScaDFX=  1.000000  1.000000  1.000000  1.000000
 FoFCou: FMM=F IPFlag=           0 FMFlag=      100000 FMFlg1=           0
         NFxFlg=           0 DoJE=T BraDBF=F KetDBF=T FulRan=T
         wScrn=  0.000000 ICntrl=     500 IOpCl=  0 I1Cent=   200000004 NGrid=           0
         NMat0=    1 NMatS0=      1 NMatT0=    0 NMatD0=    1 NMtDS0=    0 NMtDT0=    0
 Symmetry not used in FoFCou.
 Gradient too large for Newton-Raphson -- use scaled steepest descent instead.
     Accept linear search using points  2 and  3.
 Gradient too large for Newton-Raphson -- use scaled steepest descent instead.
     Accept linear search using points  2 and  3.
 Gradient too large for Newton-Raphson -- use scaled steepest descent instead.
 Gradient too large for Newton-Raphson -- use scaled steepest descent instead.
     Accept linear search using points  1 and  2.
 Gradient too large for Newton-Raphson -- use scaled steepest descent instead.
 Gradient too large for Newton-Raphson -- use scaled steepest descent instead.
 Restarting incremental Fock formation.
 Gradient too large for Newton-Raphson -- use scaled steepest descent instead.
 Gradient too large for Newton-Raphson -- use scaled steepest descent instead.
 Gradient too large for Newton-Raphson -- use scaled steepest descent instead.
 Gradient too large for Newton-Raphson or scaled steepest descent --
 use steepest descent instead.
 Gradient too large for Newton-Raphson or scaled steepest descent --
 use steepest descent instead.
 Restarting incremental Fock formation.
 Gradient too large for Newton-Raphson or scaled steepest descent --
 use steepest descent instead.
 Gradient too large for Newton-Raphson or scaled steepest descent --
 use steepest descent instead.
 Gradient too large for Newton-Raphson -- use scaled steepest descent instead.
 Gradient too large for Newton-Raphson or scaled steepest descent --
 use steepest descent instead.
     Accept linear search using points  1 and  2.
 Gradient too large for Newton-Raphson or scaled steepest descent --
 use steepest descent instead.
 Gradient too large for Newton-Raphson or scaled steepest descent --
 use steepest descent instead.
 Restarting incremental Fock formation.
 Search did not lower the energy significantly.
 Restarting incremental Fock formation.
 Search did not lower the energy significantly.
 Restarting incremental Fock formation.
 Search did not lower the energy significantly.
 No lower point found -- run aborted.
 Error termination via Lnk1e in /panfs/roc/msisoft/gaussian/g09.e01_mesabi/g09/l508.exe at Sat Aug 19 18:34:01 2017.
 Job cpu time:      11 days  0 hours 15 minutes 12.3 seconds.
 File lengths (MBytes):  RWF=    659 Int=      0 D2E=      0 Chk=     30 Scr=      1
949230.72user 2081.70system 11:01:16elapsed 2397%CPU (0avgtext+0avgdata 2420736maxresident)k
181360inputs+14382192outputs (128major+923898106minor)pagefaults 0swaps
