 Entering Gaussian System, Link 0=g09
 Initial command:
 /soft/gaussian/g09.d01_itasca/g09/l1.exe "/scratch/graha682/1920967.node1081.localdomain/Gau-23885.inp" -scrdir="/scratch/graha682/1920967.node1081.localdomain/"
 Entering Link 1 = /soft/gaussian/g09.d01_itasca/g09/l1.exe PID=     23886.
  
 Copyright (c) 1988,1990,1992,1993,1995,1998,2003,2009,2013,
            Gaussian, Inc.  All Rights Reserved.
  
 This is part of the Gaussian(R) 09 program.  It is based on
 the Gaussian(R) 03 system (copyright 2003, Gaussian, Inc.),
 the Gaussian(R) 98 system (copyright 1998, Gaussian, Inc.),
 the Gaussian(R) 94 system (copyright 1995, Gaussian, Inc.),
 the Gaussian 92(TM) system (copyright 1992, Gaussian, Inc.),
 the Gaussian 90(TM) system (copyright 1990, Gaussian, Inc.),
 the Gaussian 88(TM) system (copyright 1988, Gaussian, Inc.),
 the Gaussian 86(TM) system (copyright 1986, Carnegie Mellon
 University), and the Gaussian 82(TM) system (copyright 1983,
 Carnegie Mellon University). Gaussian is a federally registered
 trademark of Gaussian, Inc.
  
 This software contains proprietary and confidential information,
 including trade secrets, belonging to Gaussian, Inc.
  
 This software is provided under written license and may be
 used, copied, transmitted, or stored only in accord with that
 written license.
  
 The following legend is applicable only to US Government
 contracts under FAR:
  
                    RESTRICTED RIGHTS LEGEND
  
 Use, reproduction and disclosure by the US Government is
 subject to restrictions as set forth in subparagraphs (a)
 and (c) of the Commercial Computer Software - Restricted
 Rights clause in FAR 52.227-19.
  
 Gaussian, Inc.
 340 Quinnipiac St., Bldg. 40, Wallingford CT 06492
  
  
 ---------------------------------------------------------------
 Warning -- This program may not be used in any manner that
 competes with the business of Gaussian, Inc. or will provide
 assistance to any competitor of Gaussian, Inc.  The licensee
 of this program is prohibited from giving any competitor of
 Gaussian, Inc. access to this program.  By using this program,
 the user acknowledges that Gaussian, Inc. is engaged in the
 business of creating and licensing software in the field of
 computational chemistry and represents and warrants to the
 licensee that it is not a competitor of Gaussian, Inc. and that
 it will not use this program in any manner prohibited above.
 ---------------------------------------------------------------
  

 Cite this work as:
 Gaussian 09, Revision D.01,
 M. J. Frisch, G. W. Trucks, H. B. Schlegel, G. E. Scuseria, 
 M. A. Robb, J. R. Cheeseman, G. Scalmani, V. Barone, B. Mennucci, 
 G. A. Petersson, H. Nakatsuji, M. Caricato, X. Li, H. P. Hratchian, 
 A. F. Izmaylov, J. Bloino, G. Zheng, J. L. Sonnenberg, M. Hada, 
 M. Ehara, K. Toyota, R. Fukuda, J. Hasegawa, M. Ishida, T. Nakajima, 
 Y. Honda, O. Kitao, H. Nakai, T. Vreven, J. A. Montgomery, Jr., 
 J. E. Peralta, F. Ogliaro, M. Bearpark, J. J. Heyd, E. Brothers, 
 K. N. Kudin, V. N. Staroverov, T. Keith, R. Kobayashi, J. Normand, 
 K. Raghavachari, A. Rendell, J. C. Burant, S. S. Iyengar, J. Tomasi, 
 M. Cossi, N. Rega, J. M. Millam, M. Klene, J. E. Knox, J. B. Cross, 
 V. Bakken, C. Adamo, J. Jaramillo, R. Gomperts, R. E. Stratmann, 
 O. Yazyev, A. J. Austin, R. Cammi, C. Pomelli, J. W. Ochterski, 
 R. L. Martin, K. Morokuma, V. G. Zakrzewski, G. A. Voth, 
 P. Salvador, J. J. Dannenberg, S. Dapprich, A. D. Daniels, 
 O. Farkas, J. B. Foresman, J. V. Ortiz, J. Cioslowski, 
 and D. J. Fox, Gaussian, Inc., Wallingford CT, 2013.
 
 ******************************************
 Gaussian 09:  ES64L-G09RevD.01 24-Apr-2013
                11-Jul-2017 
 ******************************************
 %LindaWorkers=ic-node0154
 %NProcShared=8
 Will use up to    8 processors via shared memory.
 %Mem=11800mb
 SetLPE:  input flags=" -workerwait 250000 -opt "Tsnet.Node.lindarsharg: ssh " "
 SetLPE:    new flags=" -workerwait 250000 -opt "Tsnet.Node.lindarsharg: ssh "  -nodelist 'ic-node0154'"
 Will use up to    1 processors via Linda.
 ---------------------------------------------------
 # opt=(calcfc,ts) aug-cc-pvtz geom=connectivity m06
 ---------------------------------------------------
 1/5=1,10=4,14=-1,18=20,26=3,38=1,57=2/1,3;
 2/9=110,12=2,17=6,18=5,40=1/2;
 3/5=16,6=1,7=10,11=2,16=1,25=1,30=1,71=2,74=-54,140=1/1,2,3;
 4//1;
 5/5=2,38=5/2;
 8/6=4,10=90,11=11/1;
 11/6=1,8=1,9=11,15=111,16=1/1,2,10;
 10/6=1,13=1/2;
 6/7=2,8=2,9=2,10=2,28=1/1;
 7/10=1,18=20,25=1/1,2,3,16;
 1/5=1,10=4,14=-1,18=20,26=3/3(2);
 2/9=110/2;
 99//99;
 2/9=110/2;
 3/5=16,6=1,7=10,11=2,16=1,25=1,30=1,71=1,74=-54/1,2,3;
 4/5=5,16=3,69=1/1;
 5/5=2,38=5/2;
 7//1,2,3,16;
 1/5=1,14=-1,18=20,26=3/3(-5);
 2/9=110/2;
 6/7=2,8=2,9=2,10=2,19=2,28=1/1;
 99/9=1/99;
 -------------------
 Title Card Required
 -------------------
 Symbolic Z-matrix:
 Charge = -1 Multiplicity = 1
 C                    -2.54748   0.45293   0.06291 
 H                    -2.53824   0.52705   1.13361 
 H                    -3.46104   0.72139  -0.4329 
 C                    -1.26797   0.4356   -0.7002 
 H                    -1.32162  -0.31329  -1.49637 
 H                    -1.17501   1.42462  -1.15558 
 C                    -0.07159   0.17043   0.18606 
 H                    -0.04321   0.94755   0.9583 
 H                    -0.20989  -0.79017   0.69745 
 C                     1.23735   0.16047  -0.57446 
 H                     1.2023   -0.61195  -1.35446 
 H                     1.35823   1.11555  -1.10225 
 Cl                   -3.03008  -1.68039   0.11967 
 F                    -2.38882   2.51662   0.34221 
 C                     2.4439   -0.07749   0.30956 
 H                     2.47943   0.69441   1.08904 
 H                     2.32347  -1.0306    0.84069 
 C                     3.75866  -0.08732  -0.44427 
 H                     3.72078  -0.85903  -1.22148 
 H                     3.87522   0.86485  -0.97409 
 C                     4.95139  -0.32371   0.459 
 H                     4.86242  -1.28196   0.97719 
 H                     5.89454  -0.32916  -0.09081 
 H                     5.01786   0.45226   1.22592 
 
 Add virtual bond connecting atoms F14        and C1         Dist= 3.95D+00.
 Add virtual bond connecting atoms F14        and H2         Dist= 4.06D+00.
 Add virtual bond connecting atoms F14        and H3         Dist= 4.21D+00.
 Add virtual bond connecting atoms F14        and H6         Dist= 4.19D+00.
 Add virtual bond connecting atoms Cl13       and C1         Dist= 4.13D+00.

 GradGradGradGradGradGradGradGradGradGradGradGradGradGradGradGradGradGrad
 Berny optimization.
 Initialization pass.
                           ----------------------------
                           !    Initial Parameters    !
                           ! (Angstroms and Degrees)  !
 --------------------------                            --------------------------
 ! Name  Definition              Value          Derivative Info.                !
 --------------------------------------------------------------------------------
 ! R1    R(1,2)                  1.0733         calculate D2E/DX2 analytically  !
 ! R2    R(1,3)                  1.0735         calculate D2E/DX2 analytically  !
 ! R3    R(1,4)                  1.4899         calculate D2E/DX2 analytically  !
 ! R4    R(1,13)                 2.188          calculate D2E/DX2 analytically  !
 ! R5    R(1,14)                 2.0885         calculate D2E/DX2 analytically  !
 ! R6    R(2,14)                 2.1464         calculate D2E/DX2 analytically  !
 ! R7    R(3,14)                 2.2301         calculate D2E/DX2 analytically  !
 ! R8    R(4,5)                  1.0943         calculate D2E/DX2 analytically  !
 ! R9    R(4,6)                  1.0928         calculate D2E/DX2 analytically  !
 ! R10   R(4,7)                  1.5123         calculate D2E/DX2 analytically  !
 ! R11   R(6,14)                 2.2157         calculate D2E/DX2 analytically  !
 ! R12   R(7,8)                  1.0959         calculate D2E/DX2 analytically  !
 ! R13   R(7,9)                  1.097          calculate D2E/DX2 analytically  !
 ! R14   R(7,10)                 1.5139         calculate D2E/DX2 analytically  !
 ! R15   R(10,11)                1.0983         calculate D2E/DX2 analytically  !
 ! R16   R(10,12)                1.0979         calculate D2E/DX2 analytically  !
 ! R17   R(10,15)                1.5146         calculate D2E/DX2 analytically  !
 ! R18   R(15,16)                1.0976         calculate D2E/DX2 analytically  !
 ! R19   R(15,17)                1.0977         calculate D2E/DX2 analytically  !
 ! R20   R(15,18)                1.5156         calculate D2E/DX2 analytically  !
 ! R21   R(18,19)                1.0959         calculate D2E/DX2 analytically  !
 ! R22   R(18,20)                1.0959         calculate D2E/DX2 analytically  !
 ! R23   R(18,21)                1.5147         calculate D2E/DX2 analytically  !
 ! R24   R(21,22)                1.093          calculate D2E/DX2 analytically  !
 ! R25   R(21,23)                1.0917         calculate D2E/DX2 analytically  !
 ! R26   R(21,24)                1.093          calculate D2E/DX2 analytically  !
 ! A1    A(2,1,3)              116.7936         calculate D2E/DX2 analytically  !
 ! A2    A(2,1,4)              120.2888         calculate D2E/DX2 analytically  !
 ! A3    A(2,1,13)              92.485          calculate D2E/DX2 analytically  !
 ! A4    A(3,1,4)              119.8131         calculate D2E/DX2 analytically  !
 ! A5    A(3,1,13)              93.905          calculate D2E/DX2 analytically  !
 ! A6    A(4,1,13)             101.0331         calculate D2E/DX2 analytically  !
 ! A7    A(4,1,14)              90.8448         calculate D2E/DX2 analytically  !
 ! A8    A(1,4,5)              109.7845         calculate D2E/DX2 analytically  !
 ! A9    A(1,4,6)              106.0196         calculate D2E/DX2 analytically  !
 ! A10   A(1,4,7)              112.4121         calculate D2E/DX2 analytically  !
 ! A11   A(5,4,6)              108.6839         calculate D2E/DX2 analytically  !
 ! A12   A(5,4,7)              110.1908         calculate D2E/DX2 analytically  !
 ! A13   A(6,4,7)              109.6095         calculate D2E/DX2 analytically  !
 ! A14   A(4,6,14)              96.7628         calculate D2E/DX2 analytically  !
 ! A15   A(4,7,8)              108.0045         calculate D2E/DX2 analytically  !
 ! A16   A(4,7,9)              109.0865         calculate D2E/DX2 analytically  !
 ! A17   A(4,7,10)             113.0012         calculate D2E/DX2 analytically  !
 ! A18   A(8,7,9)              107.1998         calculate D2E/DX2 analytically  !
 ! A19   A(8,7,10)             109.6497         calculate D2E/DX2 analytically  !
 ! A20   A(9,7,10)             109.7207         calculate D2E/DX2 analytically  !
 ! A21   A(7,10,11)            109.5006         calculate D2E/DX2 analytically  !
 ! A22   A(7,10,12)            109.3282         calculate D2E/DX2 analytically  !
 ! A23   A(7,10,15)            113.3661         calculate D2E/DX2 analytically  !
 ! A24   A(11,10,12)           105.8973         calculate D2E/DX2 analytically  !
 ! A25   A(11,10,15)           109.2354         calculate D2E/DX2 analytically  !
 ! A26   A(12,10,15)           109.2418         calculate D2E/DX2 analytically  !
 ! A27   A(1,14,6)              57.6035         calculate D2E/DX2 analytically  !
 ! A28   A(2,14,3)              49.3448         calculate D2E/DX2 analytically  !
 ! A29   A(2,14,6)              80.2437         calculate D2E/DX2 analytically  !
 ! A30   A(3,14,6)              68.3884         calculate D2E/DX2 analytically  !
 ! A31   A(10,15,16)           109.2576         calculate D2E/DX2 analytically  !
 ! A32   A(10,15,17)           109.3551         calculate D2E/DX2 analytically  !
 ! A33   A(10,15,18)           113.6897         calculate D2E/DX2 analytically  !
 ! A34   A(16,15,17)           105.6971         calculate D2E/DX2 analytically  !
 ! A35   A(16,15,18)           109.2516         calculate D2E/DX2 analytically  !
 ! A36   A(17,15,18)           109.2813         calculate D2E/DX2 analytically  !
 ! A37   A(15,18,19)           109.1067         calculate D2E/DX2 analytically  !
 ! A38   A(15,18,20)           109.0936         calculate D2E/DX2 analytically  !
 ! A39   A(15,18,21)           112.7986         calculate D2E/DX2 analytically  !
 ! A40   A(19,18,20)           105.8219         calculate D2E/DX2 analytically  !
 ! A41   A(19,18,21)           109.8907         calculate D2E/DX2 analytically  !
 ! A42   A(20,18,21)           109.8861         calculate D2E/DX2 analytically  !
 ! A43   A(18,21,22)           110.8203         calculate D2E/DX2 analytically  !
 ! A44   A(18,21,23)           112.3783         calculate D2E/DX2 analytically  !
 ! A45   A(18,21,24)           110.8246         calculate D2E/DX2 analytically  !
 ! A46   A(22,21,23)           107.7404         calculate D2E/DX2 analytically  !
 ! A47   A(22,21,24)           107.1397         calculate D2E/DX2 analytically  !
 ! A48   A(23,21,24)           107.7201         calculate D2E/DX2 analytically  !
 ! A49   L(13,1,14,4,-1)       191.8779         calculate D2E/DX2 analytically  !
 ! A50   L(13,1,14,4,-2)       183.5439         calculate D2E/DX2 analytically  !
 ! D1    D(2,1,4,5)            137.8849         calculate D2E/DX2 analytically  !
 ! D2    D(2,1,4,6)           -104.8908         calculate D2E/DX2 analytically  !
 ! D3    D(2,1,4,7)             14.8519         calculate D2E/DX2 analytically  !
 ! D4    D(3,1,4,5)            -62.6665         calculate D2E/DX2 analytically  !
 ! D5    D(3,1,4,6)             54.5579         calculate D2E/DX2 analytically  !
 ! D6    D(3,1,4,7)            174.3006         calculate D2E/DX2 analytically  !
 ! D7    D(13,1,4,5)            38.3851         calculate D2E/DX2 analytically  !
 ! D8    D(13,1,4,6)           155.6095         calculate D2E/DX2 analytically  !
 ! D9    D(13,1,4,7)           -84.6478         calculate D2E/DX2 analytically  !
 ! D10   D(14,1,4,5)          -145.1588         calculate D2E/DX2 analytically  !
 ! D11   D(14,1,4,6)           -27.9344         calculate D2E/DX2 analytically  !
 ! D12   D(14,1,4,7)            91.8083         calculate D2E/DX2 analytically  !
 ! D13   D(4,1,14,6)            15.2488         calculate D2E/DX2 analytically  !
 ! D14   D(1,4,6,14)            26.3997         calculate D2E/DX2 analytically  !
 ! D15   D(5,4,6,14)           144.3588         calculate D2E/DX2 analytically  !
 ! D16   D(7,4,6,14)           -95.1597         calculate D2E/DX2 analytically  !
 ! D17   D(1,4,7,8)            -58.0877         calculate D2E/DX2 analytically  !
 ! D18   D(1,4,7,9)             58.1104         calculate D2E/DX2 analytically  !
 ! D19   D(1,4,7,10)          -179.5601         calculate D2E/DX2 analytically  !
 ! D20   D(5,4,7,8)            179.1076         calculate D2E/DX2 analytically  !
 ! D21   D(5,4,7,9)            -64.6943         calculate D2E/DX2 analytically  !
 ! D22   D(5,4,7,10)            57.6353         calculate D2E/DX2 analytically  !
 ! D23   D(6,4,7,8)             59.5464         calculate D2E/DX2 analytically  !
 ! D24   D(6,4,7,9)            175.7445         calculate D2E/DX2 analytically  !
 ! D25   D(6,4,7,10)           -61.9259         calculate D2E/DX2 analytically  !
 ! D26   D(4,6,14,1)           -21.1654         calculate D2E/DX2 analytically  !
 ! D27   D(4,6,14,2)            -0.991          calculate D2E/DX2 analytically  !
 ! D28   D(4,6,14,3)           -50.9801         calculate D2E/DX2 analytically  !
 ! D29   D(4,7,10,11)          -58.8718         calculate D2E/DX2 analytically  !
 ! D30   D(4,7,10,12)           56.7321         calculate D2E/DX2 analytically  !
 ! D31   D(4,7,10,15)          178.8711         calculate D2E/DX2 analytically  !
 ! D32   D(8,7,10,11)         -179.4108         calculate D2E/DX2 analytically  !
 ! D33   D(8,7,10,12)          -63.8068         calculate D2E/DX2 analytically  !
 ! D34   D(8,7,10,15)           58.3322         calculate D2E/DX2 analytically  !
 ! D35   D(9,7,10,11)           63.1024         calculate D2E/DX2 analytically  !
 ! D36   D(9,7,10,12)          178.7063         calculate D2E/DX2 analytically  !
 ! D37   D(9,7,10,15)          -59.1547         calculate D2E/DX2 analytically  !
 ! D38   D(7,10,15,16)         -57.6108         calculate D2E/DX2 analytically  !
 ! D39   D(7,10,15,17)          57.6335         calculate D2E/DX2 analytically  !
 ! D40   D(7,10,15,18)        -179.9333         calculate D2E/DX2 analytically  !
 ! D41   D(11,10,15,16)        179.9849         calculate D2E/DX2 analytically  !
 ! D42   D(11,10,15,17)        -64.7708         calculate D2E/DX2 analytically  !
 ! D43   D(11,10,15,18)         57.6624         calculate D2E/DX2 analytically  !
 ! D44   D(12,10,15,16)         64.5763         calculate D2E/DX2 analytically  !
 ! D45   D(12,10,15,17)        179.8205         calculate D2E/DX2 analytically  !
 ! D46   D(12,10,15,18)        -57.7462         calculate D2E/DX2 analytically  !
 ! D47   D(10,15,18,19)        -57.7015         calculate D2E/DX2 analytically  !
 ! D48   D(10,15,18,20)         57.4653         calculate D2E/DX2 analytically  !
 ! D49   D(10,15,18,21)        179.8743         calculate D2E/DX2 analytically  !
 ! D50   D(16,15,18,19)        179.9727         calculate D2E/DX2 analytically  !
 ! D51   D(16,15,18,20)        -64.8605         calculate D2E/DX2 analytically  !
 ! D52   D(16,15,18,21)         57.5484         calculate D2E/DX2 analytically  !
 ! D53   D(17,15,18,19)         64.7725         calculate D2E/DX2 analytically  !
 ! D54   D(17,15,18,20)        179.9392         calculate D2E/DX2 analytically  !
 ! D55   D(17,15,18,21)        -57.6518         calculate D2E/DX2 analytically  !
 ! D56   D(15,18,21,22)         59.4122         calculate D2E/DX2 analytically  !
 ! D57   D(15,18,21,23)       -179.9833         calculate D2E/DX2 analytically  !
 ! D58   D(15,18,21,24)        -59.4017         calculate D2E/DX2 analytically  !
 ! D59   D(19,18,21,22)        -62.5714         calculate D2E/DX2 analytically  !
 ! D60   D(19,18,21,23)         58.0332         calculate D2E/DX2 analytically  !
 ! D61   D(19,18,21,24)        178.6148         calculate D2E/DX2 analytically  !
 ! D62   D(20,18,21,22)       -178.6245         calculate D2E/DX2 analytically  !
 ! D63   D(20,18,21,23)        -58.0199         calculate D2E/DX2 analytically  !
 ! D64   D(20,18,21,24)         62.5617         calculate D2E/DX2 analytically  !
 --------------------------------------------------------------------------------
 Trust Radius=3.00D-01 FncErr=1.00D-07 GrdErr=1.00D-06
 Number of steps in this run=    144 maximum allowed number of steps=    144.
 Search for a saddle point of order  1.
 GradGradGradGradGradGradGradGradGradGradGradGradGradGradGradGradGradGrad

                          Input orientation:                          
 ---------------------------------------------------------------------
 Center     Atomic      Atomic             Coordinates (Angstroms)
 Number     Number       Type             X           Y           Z
 ---------------------------------------------------------------------
      1          6           0       -2.547480    0.452927    0.062908
      2          1           0       -2.538242    0.527052    1.133610
      3          1           0       -3.461038    0.721385   -0.432898
      4          6           0       -1.267968    0.435604   -0.700201
      5          1           0       -1.321623   -0.313286   -1.496370
      6          1           0       -1.175013    1.424623   -1.155578
      7          6           0       -0.071587    0.170431    0.186059
      8          1           0       -0.043206    0.947548    0.958299
      9          1           0       -0.209891   -0.790171    0.697452
     10          6           0        1.237345    0.160465   -0.574464
     11          1           0        1.202297   -0.611954   -1.354463
     12          1           0        1.358229    1.115547   -1.102251
     13         17           0       -3.030082   -1.680386    0.119666
     14          9           0       -2.388820    2.516624    0.342208
     15          6           0        2.443903   -0.077493    0.309558
     16          1           0        2.479433    0.694406    1.089044
     17          1           0        2.323468   -1.030602    0.840688
     18          6           0        3.758657   -0.087318   -0.444273
     19          1           0        3.720783   -0.859033   -1.221480
     20          1           0        3.875218    0.864852   -0.974088
     21          6           0        4.951388   -0.323709    0.459003
     22          1           0        4.862417   -1.281962    0.977192
     23          1           0        5.894538   -0.329162   -0.090809
     24          1           0        5.017863    0.452260    1.225922
 ---------------------------------------------------------------------
                    Distance matrix (angstroms):
                    1          2          3          4          5
     1  C    0.000000
     2  H    1.073305   0.000000
     3  H    1.073537   1.828460   0.000000
     4  C    1.489895   2.232671   2.227707   0.000000
     5  H    2.126301   3.017138   2.603577   1.094349   0.000000
     6  H    2.076672   2.811478   2.498544   1.092780   1.777065
     7  C    2.494998   2.666349   3.489274   1.512316   2.151079
     8  H    2.705136   2.536288   3.697047   2.124324   3.041291
     9  H    2.722547   2.710448   3.759315   2.139038   2.505239
    10  C    3.849244   4.160163   4.733865   2.523510   2.760918
    11  H    4.147739   4.634595   4.936980   2.761819   2.545489
    12  H    4.129313   4.530771   4.881468   2.742422   3.062434
    13  Cl   2.187956   2.478462   2.501910   2.873089   2.720178
    14  F    2.088547   2.146402   2.230095   2.583325   3.539445
    15  C    5.025543   5.085893   6.004813   3.880833   4.182841
    16  H    5.136256   5.020663   6.132392   4.160696   4.706149
    17  H    5.150916   5.113542   6.176730   4.174028   4.388971
    18  C    6.349524   6.520591   7.264856   5.060228   5.192997
    19  H    6.531616   6.829574   7.395819   5.180295   5.079297
    20  H    6.518903   6.759362   7.357589   5.168330   5.354245
    21  C    7.549376   7.567922   8.523885   6.371868   6.570712
    22  H    7.665007   7.620154   8.676500   6.583715   6.730468
    23  H    8.479561   8.564116   9.420588   7.228950   7.351791
    24  H    7.654216   7.557039   8.643834   6.574336   6.941615
                    6          7          8          9         10
     6  H    0.000000
     7  C    2.142554   0.000000
     8  H    2.444803   1.095934   0.000000
     9  H    3.044748   1.096999   1.765076   0.000000
    10  C    2.784827   1.513868   2.146782   2.148481   0.000000
    11  H    3.136687   2.146652   3.054864   2.497277   1.098298
    12  H    2.552584   2.144146   2.497621   3.054455   1.097886
    13  Cl   3.835180   3.490362   4.065805   3.013270   4.699094
    14  F    2.215662   3.301299   2.888507   3.976031   4.420503
    15  C    4.183244   2.530693   2.767180   2.775067   1.514563
    16  H    4.350462   2.756381   2.538677   3.096736   2.143626
    17  H    4.717264   2.758135   3.086755   2.548771   2.144985
    18  C    5.208937   3.890311   4.182382   4.188903   2.536801
    19  H    5.402615   4.174091   4.709860   4.374613   2.761425
    20  H    5.084399   4.171982   4.369783   4.713943   2.759390
    21  C    6.572391   5.054597   5.177969   5.187798   3.885434
    22  H    6.951609   5.203819   5.388526   5.103765   4.198735
    23  H    7.361253   5.993404   6.163394   6.172353   4.707771
    24  H    6.705874   5.202235   5.092284   5.399290   4.197481
                   11         12         13         14         15
    11  H    0.000000
    12  H    1.752765   0.000000
    13  Cl   4.607346   5.344866   0.000000
    14  F    5.055968   4.253217   4.251545   0.000000
    15  C    2.143875   2.143650   5.706999   5.485045   0.000000
    16  H    3.050964   2.497245   6.077342   5.251488   1.097583
    17  H    2.500196   3.051664   5.440826   5.919202   1.097734
    18  C    2.763814   2.764394   6.995918   6.722391   1.515565
    19  H    2.534069   3.081370   6.931628   7.153141   2.141332
    20  H    3.077361   2.532688   7.440276   6.610534   2.141127
    21  C    4.174617   4.173699   8.103060   7.871454   2.523972
    22  H    4.391128   4.727734   7.948939   8.210536   2.783108
    23  H    4.867640   4.867063   9.028784   8.769266   3.482889
    24  H    4.727524   4.387854   8.398893   7.739606   2.783097
                   16         17         18         19         20
    16  H    0.000000
    17  H    1.749760   0.000000
    18  C    2.144427   2.144919   0.000000
    19  H    3.048384   2.496890   1.095915   0.000000
    20  H    2.496754   3.048620   1.095864   1.748380   0.000000
    21  C    2.746647   2.747971   1.514726   2.150577   2.150481
    22  H    3.097927   2.555010   2.160098   2.513236   3.064452
    23  H    3.755354   3.756627   2.178397   2.506869   2.506692
    24  H    2.553624   3.099524   2.160161   3.064585   2.513148
                   21         22         23         24
    21  C    0.000000
    22  H    1.093016   0.000000
    23  H    1.091721   1.764576   0.000000
    24  H    1.093029   1.758851   1.764358   0.000000
 Stoichiometry    C7H15ClF(1-)
 Framework group  C1[X(C7H15ClF)]
 Deg. of freedom    66
 Full point group                 C1      NOp   1
 Largest Abelian subgroup         C1      NOp   1
 Largest concise Abelian subgroup C1      NOp   1
                         Standard orientation:                         
 ---------------------------------------------------------------------
 Center     Atomic      Atomic             Coordinates (Angstroms)
 Number     Number       Type             X           Y           Z
 ---------------------------------------------------------------------
      1          6           0        2.547480    0.452927   -0.062908
      2          1           0        2.538242    0.527052   -1.133610
      3          1           0        3.461038    0.721385    0.432898
      4          6           0        1.267968    0.435604    0.700201
      5          1           0        1.321623   -0.313286    1.496370
      6          1           0        1.175013    1.424623    1.155578
      7          6           0        0.071587    0.170431   -0.186059
      8          1           0        0.043206    0.947548   -0.958299
      9          1           0        0.209891   -0.790171   -0.697452
     10          6           0       -1.237345    0.160465    0.574464
     11          1           0       -1.202297   -0.611954    1.354463
     12          1           0       -1.358229    1.115547    1.102251
     13         17           0        3.030082   -1.680386   -0.119666
     14          9           0        2.388820    2.516624   -0.342208
     15          6           0       -2.443903   -0.077493   -0.309558
     16          1           0       -2.479433    0.694406   -1.089044
     17          1           0       -2.323468   -1.030602   -0.840688
     18          6           0       -3.758657   -0.087318    0.444273
     19          1           0       -3.720783   -0.859033    1.221480
     20          1           0       -3.875218    0.864852    0.974088
     21          6           0       -4.951388   -0.323709   -0.459003
     22          1           0       -4.862417   -1.281962   -0.977192
     23          1           0       -5.894538   -0.329161    0.090809
     24          1           0       -5.017863    0.452260   -1.225922
 ---------------------------------------------------------------------
 Rotational constants (GHZ):      1.8553171      0.4006967      0.3454947
 Standard basis: Aug-CC-pVTZ (5D, 7F)
 There are   874 symmetry adapted cartesian basis functions of A   symmetry.
 There are   763 symmetry adapted basis functions of A   symmetry.
   763 basis functions,  1095 primitive gaussians,   874 cartesian basis functions
    42 alpha electrons       42 beta electrons
       nuclear repulsion energy       514.7354153661 Hartrees.
 NAtoms=   24 NActive=   24 NUniq=   24 SFac= 1.00D+00 NAtFMM=   60 NAOKFM=F Big=F
 Integral buffers will be    131072 words long.
 Raffenetti 2 integral format.
 Two-electron integral symmetry is turned on.
 One-electron integrals computed using PRISM.
 NBasis=   763 RedAO= T EigKep=  2.82D-06  NBF=   763
 NBsUse=   763 1.00D-06 EigRej= -1.00D+00 NBFU=   763
 ExpMin= 2.53D-02 ExpMax= 4.56D+05 ExpMxC= 1.44D+03 IAcc=3 IRadAn=         5 AccDes= 0.00D+00
 Harris functional with IExCor= 1009 and IRadAn=       5 diagonalized for initial guess.
 HarFok:  IExCor= 1009 AccDes= 0.00D+00 IRadAn=         5 IDoV= 1 UseB2=F ITyADJ=14
 ICtDFT=  3500011 ScaDFX=  1.000000  1.000000  1.000000  1.000000
 FoFCou: FMM=F IPFlag=           0 FMFlag=      100000 FMFlg1=           0
         NFxFlg=           0 DoJE=T BraDBF=F KetDBF=T FulRan=T
         wScrn=  0.000000 ICntrl=     500 IOpCl=  0 I1Cent=   200000004 NGrid=           0
         NMat0=    1 NMatS0=      1 NMatT0=    0 NMatD0=    1 NMtDS0=    0 NMtDT0=    0
 Petite list used in FoFCou.
 Requested convergence on RMS density matrix=1.00D-08 within 128 cycles.
 Requested convergence on MAX density matrix=1.00D-06.
 Requested convergence on             energy=1.00D-06.
 No special actions if energy rises.
 SCF Done:  E(RM06) =  -835.736573367     A.U. after   15 cycles
            NFock= 15  Conv=0.85D-08     -V/T= 2.0045
 DoSCS=F DFT=T ScalE2(SS,OS)=  1.000000  1.000000
 Range of M.O.s used for correlation:     1   763
 NBasis=   763 NAE=    42 NBE=    42 NFC=     0 NFV=     0
 NROrb=    763 NOA=    42 NOB=    42 NVA=   721 NVB=   721

 **** Warning!!: The largest alpha MO coefficient is  0.80611256D+02

 Symmetrizing basis deriv contribution to polar:
 IMax=3 JMax=2 DiffMx= 0.00D+00
 G2DrvN: will do    25 centers at a time, making    1 passes.
 Calling FoFCou, ICntrl=  3107 FMM=F I1Cent=   0 AccDes= 0.00D+00.
 End of G2Drv F.D. properties file   721 does not exist.
 End of G2Drv F.D. properties file   722 does not exist.
 End of G2Drv F.D. properties file   788 does not exist.
          IDoAtm=111111111111111111111111
          Differentiating once with respect to nuclear coordinates.
          There are    75 degrees of freedom in the 1st order CPHF.  IDoFFX=6 NUNeed=     0.
     72 vectors produced by pass  0 Test12= 4.04D-14 1.33D-09 XBig12= 4.04D-01 3.23D-01.
 AX will form    72 AO Fock derivatives at one time.
     69 vectors produced by pass  1 Test12= 4.04D-14 1.33D-09 XBig12= 1.31D-01 9.17D-02.
     69 vectors produced by pass  2 Test12= 4.04D-14 1.33D-09 XBig12= 2.52D-03 4.65D-03.
     69 vectors produced by pass  3 Test12= 4.04D-14 1.33D-09 XBig12= 6.32D-05 6.86D-04.
     69 vectors produced by pass  4 Test12= 4.04D-14 1.33D-09 XBig12= 7.55D-07 4.91D-05.
     69 vectors produced by pass  5 Test12= 4.04D-14 1.33D-09 XBig12= 7.13D-09 5.74D-06.
     69 vectors produced by pass  6 Test12= 4.04D-14 1.33D-09 XBig12= 6.22D-11 5.64D-07.
     58 vectors produced by pass  7 Test12= 4.04D-14 1.33D-09 XBig12= 1.32D-12 7.69D-08.
     58 vectors produced by pass  8 Test12= 4.04D-14 1.33D-09 XBig12= 4.02D-13 7.15D-08.
     56 vectors produced by pass  9 Test12= 4.04D-14 1.33D-09 XBig12= 9.77D-14 1.88D-08.
     55 vectors produced by pass 10 Test12= 4.04D-14 1.33D-09 XBig12= 3.07D-14 1.05D-08.
     54 vectors produced by pass 11 Test12= 4.04D-14 1.33D-09 XBig12= 6.16D-15 4.33D-09.
     48 vectors produced by pass 12 Test12= 4.04D-14 1.33D-09 XBig12= 1.65D-15 2.60D-09.
     37 vectors produced by pass 13 Test12= 4.04D-14 1.33D-09 XBig12= 1.01D-15 2.11D-09.
     26 vectors produced by pass 14 Test12= 4.04D-14 1.33D-09 XBig12= 1.05D-15 2.75D-09.
     23 vectors produced by pass 15 Test12= 4.04D-14 1.33D-09 XBig12= 9.60D-16 2.10D-09.
     20 vectors produced by pass 16 Test12= 4.04D-14 1.33D-09 XBig12= 9.94D-16 2.30D-09.
     15 vectors produced by pass 17 Test12= 4.04D-14 1.33D-09 XBig12= 8.43D-16 1.97D-09.
     15 vectors produced by pass 18 Test12= 4.04D-14 1.33D-09 XBig12= 1.91D-15 2.53D-09.
     14 vectors produced by pass 19 Test12= 4.04D-14 1.33D-09 XBig12= 2.66D-15 2.81D-09.
     13 vectors produced by pass 20 Test12= 4.04D-14 1.33D-09 XBig12= 5.24D-15 3.80D-09.
     13 vectors produced by pass 21 Test12= 4.04D-14 1.33D-09 XBig12= 6.14D-15 4.11D-09.
     13 vectors produced by pass 22 Test12= 4.04D-14 1.33D-09 XBig12= 3.24D-15 2.95D-09.
     12 vectors produced by pass 23 Test12= 4.04D-14 1.33D-09 XBig12= 2.86D-15 3.06D-09.
     10 vectors produced by pass 24 Test12= 4.04D-14 1.33D-09 XBig12= 1.94D-15 2.85D-09.
     10 vectors produced by pass 25 Test12= 4.04D-14 1.33D-09 XBig12= 1.59D-15 2.25D-09.
     10 vectors produced by pass 26 Test12= 4.04D-14 1.33D-09 XBig12= 1.25D-15 2.06D-09.
     10 vectors produced by pass 27 Test12= 4.04D-14 1.33D-09 XBig12= 1.21D-15 2.17D-09.
     10 vectors produced by pass 28 Test12= 4.04D-14 1.33D-09 XBig12= 1.51D-15 2.20D-09.
     10 vectors produced by pass 29 Test12= 4.04D-14 1.33D-09 XBig12= 1.06D-15 1.87D-09.
      9 vectors produced by pass 30 Test12= 4.04D-14 1.33D-09 XBig12= 9.74D-16 1.75D-09.
      8 vectors produced by pass 31 Test12= 4.04D-14 1.33D-09 XBig12= 8.87D-16 1.77D-09.
      7 vectors produced by pass 32 Test12= 4.04D-14 1.33D-09 XBig12= 1.32D-15 2.03D-09.
      7 vectors produced by pass 33 Test12= 4.04D-14 1.33D-09 XBig12= 2.12D-15 2.54D-09.
      7 vectors produced by pass 34 Test12= 4.04D-14 1.33D-09 XBig12= 1.76D-15 2.09D-09.
      6 vectors produced by pass 35 Test12= 4.04D-14 1.33D-09 XBig12= 1.57D-15 2.34D-09.
      6 vectors produced by pass 36 Test12= 4.04D-14 1.33D-09 XBig12= 1.89D-15 2.56D-09.
      6 vectors produced by pass 37 Test12= 4.04D-14 1.33D-09 XBig12= 1.24D-15 1.80D-09.
      6 vectors produced by pass 38 Test12= 4.04D-14 1.33D-09 XBig12= 1.06D-15 1.68D-09.
      6 vectors produced by pass 39 Test12= 4.04D-14 1.33D-09 XBig12= 1.66D-15 2.27D-09.
      6 vectors produced by pass 40 Test12= 4.04D-14 1.33D-09 XBig12= 1.58D-15 2.28D-09.
      6 vectors produced by pass 41 Test12= 4.04D-14 1.33D-09 XBig12= 1.52D-15 2.11D-09.
      6 vectors produced by pass 42 Test12= 4.04D-14 1.33D-09 XBig12= 1.05D-15 1.78D-09.
      6 vectors produced by pass 43 Test12= 4.04D-14 1.33D-09 XBig12= 1.59D-15 1.85D-09.
      6 vectors produced by pass 44 Test12= 4.04D-14 1.33D-09 XBig12= 1.44D-15 2.36D-09.
      6 vectors produced by pass 45 Test12= 4.04D-14 1.33D-09 XBig12= 1.43D-15 2.10D-09.
      6 vectors produced by pass 46 Test12= 4.04D-14 1.33D-09 XBig12= 1.39D-15 2.11D-09.
      5 vectors produced by pass 47 Test12= 4.04D-14 1.33D-09 XBig12= 1.35D-15 1.96D-09.
      5 vectors produced by pass 48 Test12= 4.04D-14 1.33D-09 XBig12= 2.25D-14 7.34D-09.
      5 vectors produced by pass 49 Test12= 4.04D-14 1.33D-09 XBig12= 2.21D-14 7.73D-09.
      5 vectors produced by pass 50 Test12= 4.04D-14 1.33D-09 XBig12= 6.63D-15 3.93D-09.
      5 vectors produced by pass 51 Test12= 4.04D-14 1.33D-09 XBig12= 9.96D-15 5.51D-09.
      5 vectors produced by pass 52 Test12= 4.04D-14 1.33D-09 XBig12= 1.07D-14 4.94D-09.
      5 vectors produced by pass 53 Test12= 4.04D-14 1.33D-09 XBig12= 4.23D-15 2.94D-09.
      5 vectors produced by pass 54 Test12= 4.04D-14 1.33D-09 XBig12= 8.91D-15 4.61D-09.
      5 vectors produced by pass 55 Test12= 4.04D-14 1.33D-09 XBig12= 1.97D-14 6.34D-09.
      5 vectors produced by pass 56 Test12= 4.04D-14 1.33D-09 XBig12= 6.41D-15 3.32D-09.
      5 vectors produced by pass 57 Test12= 4.04D-14 1.33D-09 XBig12= 6.27D-15 4.68D-09.
      5 vectors produced by pass 58 Test12= 4.04D-14 1.33D-09 XBig12= 1.36D-14 5.45D-09.
      5 vectors produced by pass 59 Test12= 4.04D-14 1.33D-09 XBig12= 1.14D-14 4.91D-09.
      5 vectors produced by pass 60 Test12= 4.04D-14 1.33D-09 XBig12= 1.55D-14 6.03D-09.
      5 vectors produced by pass 61 Test12= 4.04D-14 1.33D-09 XBig12= 9.06D-15 4.90D-09.
      5 vectors produced by pass 62 Test12= 4.04D-14 1.33D-09 XBig12= 1.04D-14 6.71D-09.
      5 vectors produced by pass 63 Test12= 4.04D-14 1.33D-09 XBig12= 1.29D-14 6.02D-09.
      5 vectors produced by pass 64 Test12= 4.04D-14 1.33D-09 XBig12= 8.19D-15 4.17D-09.
      5 vectors produced by pass 65 Test12= 4.04D-14 1.33D-09 XBig12= 8.27D-15 4.39D-09.
      5 vectors produced by pass 66 Test12= 4.04D-14 1.33D-09 XBig12= 1.10D-14 5.49D-09.
      4 vectors produced by pass 67 Test12= 4.04D-14 1.33D-09 XBig12= 4.48D-15 3.36D-09.
      4 vectors produced by pass 68 Test12= 4.04D-14 1.33D-09 XBig12= 1.36D-14 5.65D-09.
      4 vectors produced by pass 69 Test12= 4.04D-14 1.33D-09 XBig12= 1.23D-14 5.72D-09.
      4 vectors produced by pass 70 Test12= 4.04D-14 1.33D-09 XBig12= 1.53D-14 6.00D-09.
      4 vectors produced by pass 71 Test12= 4.04D-14 1.33D-09 XBig12= 6.82D-15 3.59D-09.
      4 vectors produced by pass 72 Test12= 4.04D-14 1.33D-09 XBig12= 9.15D-15 4.64D-09.
      4 vectors produced by pass 73 Test12= 4.04D-14 1.33D-09 XBig12= 6.22D-15 4.05D-09.
      4 vectors produced by pass 74 Test12= 4.04D-14 1.33D-09 XBig12= 1.06D-14 4.68D-09.
      4 vectors produced by pass 75 Test12= 4.04D-14 1.33D-09 XBig12= 5.64D-15 3.34D-09.
      4 vectors produced by pass 76 Test12= 4.04D-14 1.33D-09 XBig12= 7.51D-15 3.82D-09.
      4 vectors produced by pass 77 Test12= 4.04D-14 1.33D-09 XBig12= 9.10D-15 4.14D-09.
      4 vectors produced by pass 78 Test12= 4.04D-14 1.33D-09 XBig12= 1.00D-14 4.45D-09.
      4 vectors produced by pass 79 Test12= 4.04D-14 1.33D-09 XBig12= 4.42D-15 2.88D-09.
      4 vectors produced by pass 80 Test12= 4.04D-14 1.33D-09 XBig12= 9.15D-15 4.45D-09.
      4 vectors produced by pass 81 Test12= 4.04D-14 1.33D-09 XBig12= 8.19D-15 4.15D-09.
      4 vectors produced by pass 82 Test12= 4.04D-14 1.33D-09 XBig12= 7.54D-15 3.94D-09.
      4 vectors produced by pass 83 Test12= 4.04D-14 1.33D-09 XBig12= 5.89D-15 3.19D-09.
      4 vectors produced by pass 84 Test12= 4.04D-14 1.33D-09 XBig12= 5.52D-15 4.06D-09.
      4 vectors produced by pass 85 Test12= 4.04D-14 1.33D-09 XBig12= 1.06D-14 5.08D-09.
      4 vectors produced by pass 86 Test12= 4.04D-14 1.33D-09 XBig12= 9.67D-15 4.33D-09.
      4 vectors produced by pass 87 Test12= 4.04D-14 1.33D-09 XBig12= 1.17D-14 5.15D-09.
      4 vectors produced by pass 88 Test12= 4.04D-14 1.33D-09 XBig12= 8.66D-15 4.30D-09.
      4 vectors produced by pass 89 Test12= 4.04D-14 1.33D-09 XBig12= 6.98D-15 3.61D-09.
      4 vectors produced by pass 90 Test12= 4.04D-14 1.33D-09 XBig12= 5.10D-15 3.85D-09.
      4 vectors produced by pass 91 Test12= 4.04D-14 1.33D-09 XBig12= 7.01D-15 3.29D-09.
      4 vectors produced by pass 92 Test12= 4.04D-14 1.33D-09 XBig12= 4.98D-15 3.18D-09.
      4 vectors produced by pass 93 Test12= 4.04D-14 1.33D-09 XBig12= 4.86D-15 3.85D-09.
      4 vectors produced by pass 94 Test12= 4.04D-14 1.33D-09 XBig12= 4.52D-15 3.50D-09.
      4 vectors produced by pass 95 Test12= 4.04D-14 1.33D-09 XBig12= 4.36D-15 2.96D-09.
      4 vectors produced by pass 96 Test12= 4.04D-14 1.33D-09 XBig12= 2.22D-15 2.16D-09.
      4 vectors produced by pass 97 Test12= 4.04D-14 1.33D-09 XBig12= 4.31D-15 2.96D-09.
      4 vectors produced by pass 98 Test12= 4.04D-14 1.33D-09 XBig12= 6.83D-15 3.55D-09.
      4 vectors produced by pass 99 Test12= 4.04D-14 1.33D-09 XBig12= 5.78D-15 3.22D-09.
      4 vectors produced by pass100 Test12= 4.04D-14 1.33D-09 XBig12= 7.77D-15 4.56D-09.
      4 vectors produced by pass101 Test12= 4.04D-14 1.33D-09 XBig12= 7.82D-15 3.59D-09.
      4 vectors produced by pass102 Test12= 4.04D-14 1.33D-09 XBig12= 7.89D-15 3.98D-09.
      4 vectors produced by pass103 Test12= 4.04D-14 1.33D-09 XBig12= 6.51D-15 4.22D-09.
      4 vectors produced by pass104 Test12= 4.04D-14 1.33D-09 XBig12= 6.14D-15 3.43D-09.
      4 vectors produced by pass105 Test12= 4.04D-14 1.33D-09 XBig12= 6.61D-15 3.72D-09.
      4 vectors produced by pass106 Test12= 4.04D-14 1.33D-09 XBig12= 7.52D-15 4.63D-09.
      4 vectors produced by pass107 Test12= 4.04D-14 1.33D-09 XBig12= 3.55D-15 2.91D-09.
      4 vectors produced by pass108 Test12= 4.04D-14 1.33D-09 XBig12= 5.08D-15 3.82D-09.
      4 vectors produced by pass109 Test12= 4.04D-14 1.33D-09 XBig12= 3.61D-15 2.92D-09.
      4 vectors produced by pass110 Test12= 4.04D-14 1.33D-09 XBig12= 4.89D-15 3.03D-09.
      4 vectors produced by pass111 Test12= 4.04D-14 1.33D-09 XBig12= 8.31D-15 4.65D-09.
      4 vectors produced by pass112 Test12= 4.04D-14 1.33D-09 XBig12= 6.27D-15 3.89D-09.
      4 vectors produced by pass113 Test12= 4.04D-14 1.33D-09 XBig12= 5.52D-15 3.25D-09.
      4 vectors produced by pass114 Test12= 4.04D-14 1.33D-09 XBig12= 5.42D-15 3.31D-09.
      4 vectors produced by pass115 Test12= 4.04D-14 1.33D-09 XBig12= 5.27D-15 3.96D-09.
      4 vectors produced by pass116 Test12= 4.04D-14 1.33D-09 XBig12= 5.53D-15 3.45D-09.
      4 vectors produced by pass117 Test12= 4.04D-14 1.33D-09 XBig12= 5.99D-15 3.33D-09.
      4 vectors produced by pass118 Test12= 4.04D-14 1.33D-09 XBig12= 4.60D-15 3.07D-09.
      4 vectors produced by pass119 Test12= 4.04D-14 1.33D-09 XBig12= 7.13D-15 3.83D-09.
      4 vectors produced by pass120 Test12= 4.04D-14 1.33D-09 XBig12= 6.93D-15 4.07D-09.
      4 vectors produced by pass121 Test12= 4.04D-14 1.33D-09 XBig12= 7.49D-15 4.15D-09.
      4 vectors produced by pass122 Test12= 4.04D-14 1.33D-09 XBig12= 5.60D-15 3.59D-09.
      4 vectors produced by pass123 Test12= 4.04D-14 1.33D-09 XBig12= 4.99D-15 3.43D-09.
      4 vectors produced by pass124 Test12= 4.04D-14 1.33D-09 XBig12= 5.51D-15 3.60D-09.
      4 vectors produced by pass125 Test12= 4.04D-14 1.33D-09 XBig12= 3.57D-15 2.89D-09.
      4 vectors produced by pass126 Test12= 4.04D-14 1.33D-09 XBig12= 6.85D-15 4.17D-09.
      4 vectors produced by pass127 Test12= 4.04D-14 1.33D-09 XBig12= 4.42D-15 3.09D-09.
      4 vectors produced by pass128 Test12= 4.04D-14 1.33D-09 XBig12= 5.64D-15 3.31D-09.
      4 vectors produced by pass129 Test12= 4.04D-14 1.33D-09 XBig12= 1.02D-14 4.18D-09.
      4 vectors produced by pass130 Test12= 4.04D-14 1.33D-09 XBig12= 6.97D-15 3.55D-09.
      4 vectors produced by pass131 Test12= 4.04D-14 1.33D-09 XBig12= 6.67D-15 3.41D-09.
      4 vectors produced by pass132 Test12= 4.04D-14 1.33D-09 XBig12= 6.42D-15 3.88D-09.
      4 vectors produced by pass133 Test12= 4.04D-14 1.33D-09 XBig12= 5.75D-15 3.49D-09.
      4 vectors produced by pass134 Test12= 4.04D-14 1.33D-09 XBig12= 5.13D-15 3.26D-09.
      4 vectors produced by pass135 Test12= 4.04D-14 1.33D-09 XBig12= 6.99D-15 3.74D-09.
      4 vectors produced by pass136 Test12= 4.04D-14 1.33D-09 XBig12= 4.86D-15 2.95D-09.
      4 vectors produced by pass137 Test12= 4.04D-14 1.33D-09 XBig12= 1.97D-15 1.99D-09.
      4 vectors produced by pass138 Test12= 4.04D-14 1.33D-09 XBig12= 5.18D-15 2.81D-09.
      4 vectors produced by pass139 Test12= 4.04D-14 1.33D-09 XBig12= 3.55D-15 2.94D-09.
      4 vectors produced by pass140 Test12= 4.04D-14 1.33D-09 XBig12= 4.11D-15 3.16D-09.
      4 vectors produced by pass141 Test12= 4.04D-14 1.33D-09 XBig12= 2.49D-15 2.20D-09.
      4 vectors produced by pass142 Test12= 4.04D-14 1.33D-09 XBig12= 3.64D-15 2.71D-09.
      4 vectors produced by pass143 Test12= 4.04D-14 1.33D-09 XBig12= 1.53D-15 1.93D-09.
      4 vectors produced by pass144 Test12= 4.04D-14 1.33D-09 XBig12= 6.13D-15 3.36D-09.
      4 vectors produced by pass145 Test12= 4.04D-14 1.33D-09 XBig12= 4.79D-15 3.19D-09.
      4 vectors produced by pass146 Test12= 4.04D-14 1.33D-09 XBig12= 5.97D-15 3.52D-09.
      4 vectors produced by pass147 Test12= 4.04D-14 1.33D-09 XBig12= 4.58D-15 2.69D-09.
      4 vectors produced by pass148 Test12= 4.04D-14 1.33D-09 XBig12= 5.12D-15 3.24D-09.
      4 vectors produced by pass149 Test12= 4.04D-14 1.33D-09 XBig12= 5.67D-15 3.70D-09.
      4 vectors produced by pass150 Test12= 4.04D-14 1.33D-09 XBig12= 2.36D-15 1.92D-09.
      4 vectors produced by pass151 Test12= 4.04D-14 1.33D-09 XBig12= 5.34D-15 3.22D-09.
      4 vectors produced by pass152 Test12= 4.04D-14 1.33D-09 XBig12= 6.42D-15 3.70D-09.
      4 vectors produced by pass153 Test12= 4.04D-14 1.33D-09 XBig12= 5.04D-15 3.16D-09.
      4 vectors produced by pass154 Test12= 4.04D-14 1.33D-09 XBig12= 3.06D-15 2.18D-09.
      4 vectors produced by pass155 Test12= 4.04D-14 1.33D-09 XBig12= 2.69D-15 2.60D-09.
      4 vectors produced by pass156 Test12= 4.04D-14 1.33D-09 XBig12= 6.69D-15 3.56D-09.
      4 vectors produced by pass157 Test12= 4.04D-14 1.33D-09 XBig12= 4.16D-15 2.51D-09.
      4 vectors produced by pass158 Test12= 4.04D-14 1.33D-09 XBig12= 5.09D-15 3.17D-09.
      4 vectors produced by pass159 Test12= 4.04D-14 1.33D-09 XBig12= 8.40D-15 4.96D-09.
      4 vectors produced by pass160 Test12= 4.04D-14 1.33D-09 XBig12= 3.26D-15 2.62D-09.
      4 vectors produced by pass161 Test12= 4.04D-14 1.33D-09 XBig12= 5.80D-15 3.15D-09.
      4 vectors produced by pass162 Test12= 4.04D-14 1.33D-09 XBig12= 2.47D-15 2.12D-09.
      4 vectors produced by pass163 Test12= 4.04D-14 1.33D-09 XBig12= 3.64D-15 2.85D-09.
      4 vectors produced by pass164 Test12= 4.04D-14 1.33D-09 XBig12= 4.64D-15 2.93D-09.
      4 vectors produced by pass165 Test12= 4.04D-14 1.33D-09 XBig12= 5.70D-15 3.17D-09.
      4 vectors produced by pass166 Test12= 4.04D-14 1.33D-09 XBig12= 3.64D-15 2.87D-09.
      4 vectors produced by pass167 Test12= 4.04D-14 1.33D-09 XBig12= 4.19D-15 3.00D-09.
      4 vectors produced by pass168 Test12= 4.04D-14 1.33D-09 XBig12= 5.26D-15 3.10D-09.
      4 vectors produced by pass169 Test12= 4.04D-14 1.33D-09 XBig12= 4.35D-15 3.29D-09.
      4 vectors produced by pass170 Test12= 4.04D-14 1.33D-09 XBig12= 3.90D-15 2.90D-09.
      4 vectors produced by pass171 Test12= 4.04D-14 1.33D-09 XBig12= 2.08D-15 1.94D-09.
      4 vectors produced by pass172 Test12= 4.04D-14 1.33D-09 XBig12= 2.56D-15 2.27D-09.
      4 vectors produced by pass173 Test12= 4.04D-14 1.33D-09 XBig12= 4.21D-15 2.98D-09.
      4 vectors produced by pass174 Test12= 4.04D-14 1.33D-09 XBig12= 4.03D-15 3.10D-09.
      4 vectors produced by pass175 Test12= 4.04D-14 1.33D-09 XBig12= 3.98D-15 3.21D-09.
      4 vectors produced by pass176 Test12= 4.04D-14 1.33D-09 XBig12= 3.40D-15 2.83D-09.
      4 vectors produced by pass177 Test12= 4.04D-14 1.33D-09 XBig12= 2.40D-15 2.28D-09.
      4 vectors produced by pass178 Test12= 4.04D-14 1.33D-09 XBig12= 4.00D-15 3.07D-09.
      4 vectors produced by pass179 Test12= 4.04D-14 1.33D-09 XBig12= 2.61D-15 2.45D-09.
      4 vectors produced by pass180 Test12= 4.04D-14 1.33D-09 XBig12= 4.99D-15 3.13D-09.
      4 vectors produced by pass181 Test12= 4.04D-14 1.33D-09 XBig12= 2.55D-15 2.16D-09.
      4 vectors produced by pass182 Test12= 4.04D-14 1.33D-09 XBig12= 4.14D-15 2.80D-09.
      4 vectors produced by pass183 Test12= 4.04D-14 1.33D-09 XBig12= 1.67D-15 2.03D-09.
      4 vectors produced by pass184 Test12= 4.04D-14 1.33D-09 XBig12= 4.40D-15 3.74D-09.
      4 vectors produced by pass185 Test12= 4.04D-14 1.33D-09 XBig12= 1.70D-15 1.80D-09.
      3 vectors produced by pass186 Test12= 4.04D-14 1.33D-09 XBig12= 1.68D-15 2.00D-09.
      3 vectors produced by pass187 Test12= 4.04D-14 1.33D-09 XBig12= 4.71D-15 3.01D-09.
      3 vectors produced by pass188 Test12= 4.04D-14 1.33D-09 XBig12= 4.58D-15 3.10D-09.
      3 vectors produced by pass189 Test12= 4.04D-14 1.33D-09 XBig12= 3.30D-15 2.34D-09.
      3 vectors produced by pass190 Test12= 4.04D-14 1.33D-09 XBig12= 1.14D-15 1.74D-09.
      3 vectors produced by pass191 Test12= 4.04D-14 1.33D-09 XBig12= 4.43D-15 2.82D-09.
      3 vectors produced by pass192 Test12= 4.04D-14 1.33D-09 XBig12= 2.50D-15 2.69D-09.
      3 vectors produced by pass193 Test12= 4.04D-14 1.33D-09 XBig12= 3.08D-15 2.51D-09.
      3 vectors produced by pass194 Test12= 4.04D-14 1.33D-09 XBig12= 5.68D-15 3.37D-09.
      3 vectors produced by pass195 Test12= 4.04D-14 1.33D-09 XBig12= 3.44D-15 3.02D-09.
      3 vectors produced by pass196 Test12= 4.04D-14 1.33D-09 XBig12= 4.15D-15 3.01D-09.
      3 vectors produced by pass197 Test12= 4.04D-14 1.33D-09 XBig12= 5.27D-15 3.50D-09.
      3 vectors produced by pass198 Test12= 4.04D-14 1.33D-09 XBig12= 2.95D-15 2.30D-09.
      3 vectors produced by pass199 Test12= 4.04D-14 1.33D-09 XBig12= 2.21D-15 2.11D-09.
      3 vectors produced by pass200 Test12= 4.04D-14 1.33D-09 XBig12= 3.89D-15 2.90D-09.
      3 vectors produced by pass201 Test12= 4.04D-14 1.33D-09 XBig12= 2.97D-15 2.36D-09.
      3 vectors produced by pass202 Test12= 4.04D-14 1.33D-09 XBig12= 2.39D-15 2.29D-09.
      3 vectors produced by pass203 Test12= 4.04D-14 1.33D-09 XBig12= 4.02D-15 2.71D-09.
      3 vectors produced by pass204 Test12= 4.04D-14 1.33D-09 XBig12= 5.30D-15 3.41D-09.
      3 vectors produced by pass205 Test12= 4.04D-14 1.33D-09 XBig12= 3.02D-15 2.29D-09.
      3 vectors produced by pass206 Test12= 4.04D-14 1.33D-09 XBig12= 2.23D-15 2.14D-09.
      3 vectors produced by pass207 Test12= 4.04D-14 1.33D-09 XBig12= 3.34D-15 2.54D-09.
      3 vectors produced by pass208 Test12= 4.04D-14 1.33D-09 XBig12= 1.69D-15 1.69D-09.
      3 vectors produced by pass209 Test12= 4.04D-14 1.33D-09 XBig12= 3.70D-15 2.55D-09.
      3 vectors produced by pass210 Test12= 4.04D-14 1.33D-09 XBig12= 3.40D-15 2.52D-09.
      3 vectors produced by pass211 Test12= 4.04D-14 1.33D-09 XBig12= 2.09D-15 2.21D-09.
      3 vectors produced by pass212 Test12= 4.04D-14 1.33D-09 XBig12= 4.26D-15 2.95D-09.
      3 vectors produced by pass213 Test12= 4.04D-14 1.33D-09 XBig12= 4.37D-15 2.72D-09.
      2 vectors produced by pass214 Test12= 4.04D-14 1.33D-09 XBig12= 2.28D-15 2.34D-09.
 InvSVY:  IOpt=1 It=  1 EMax= 8.88D-16
 Solved reduced A of dimension  1848 with    75 vectors.
 End of Minotr F.D. properties file   721 does not exist.
 End of Minotr F.D. properties file   722 does not exist.
 End of Minotr F.D. properties file   788 does not exist.

 **********************************************************************

            Population analysis using the SCF density.

 **********************************************************************

 Orbital symmetries:
       Occupied  (A) (A) (A) (A) (A) (A) (A) (A) (A) (A) (A) (A)
                 (A) (A) (A) (A) (A) (A) (A) (A) (A) (A) (A) (A)
                 (A) (A) (A) (A) (A) (A) (A) (A) (A) (A) (A) (A)
                 (A) (A) (A) (A) (A) (A)
       Virtual   (A) (A) (A) (A) (A) (A) (A) (A) (A) (A) (A) (A)
                 (A) (A) (A) (A) (A) (A) (A) (A) (A) (A) (A) (A)
                 (A) (A) (A) (A) (A) (A) (A) (A) (A) (A) (A) (A)
                 (A) (A) (A) (A) (A) (A) (A) (A) (A) (A) (A) (A)
                 (A) (A) (A) (A) (A) (A) (A) (A) (A) (A) (A) (A)
                 (A) (A) (A) (A) (A) (A) (A) (A) (A) (A) (A) (A)
                 (A) (A) (A) (A) (A) (A) (A) (A) (A) (A) (A) (A)
                 (A) (A) (A) (A) (A) (A) (A) (A) (A) (A) (A) (A)
                 (A) (A) (A) (A) (A) (A) (A) (A) (A) (A) (A) (A)
                 (A) (A) (A) (A) (A) (A) (A) (A) (A) (A) (A) (A)
                 (A) (A) (A) (A) (A) (A) (A) (A) (A) (A) (A) (A)
                 (A) (A) (A) (A) (A) (A) (A) (A) (A) (A) (A) (A)
                 (A) (A) (A) (A) (A) (A) (A) (A) (A) (A) (A) (A)
                 (A) (A) (A) (A) (A) (A) (A) (A) (A) (A) (A) (A)
                 (A) (A) (A) (A) (A) (A) (A) (A) (A) (A) (A) (A)
                 (A) (A) (A) (A) (A) (A) (A) (A) (A) (A) (A) (A)
                 (A) (A) (A) (A) (A) (A) (A) (A) (A) (A) (A) (A)
                 (A) (A) (A) (A) (A) (A) (A) (A) (A) (A) (A) (A)
                 (A) (A) (A) (A) (A) (A) (A) (A) (A) (A) (A) (A)
                 (A) (A) (A) (A) (A) (A) (A) (A) (A) (A) (A) (A)
                 (A) (A) (A) (A) (A) (A) (A) (A) (A) (A) (A) (A)
                 (A) (A) (A) (A) (A) (A) (A) (A) (A) (A) (A) (A)
                 (A) (A) (A) (A) (A) (A) (A) (A) (A) (A) (A) (A)
                 (A) (A) (A) (A) (A) (A) (A) (A) (A) (A) (A) (A)
                 (A) (A) (A) (A) (A) (A) (A) (A) (A) (A) (A) (A)
                 (A) (A) (A) (A) (A) (A) (A) (A) (A) (A) (A) (A)
                 (A) (A) (A) (A) (A) (A) (A) (A) (A) (A) (A) (A)
                 (A) (A) (A) (A) (A) (A) (A) (A) (A) (A) (A) (A)
                 (A) (A) (A) (A) (A) (A) (A) (A) (A) (A) (A) (A)
                 (A) (A) (A) (A) (A) (A) (A) (A) (A) (A) (A) (A)
                 (A) (A) (A) (A) (A) (A) (A) (A) (A) (A) (A) (A)
                 (A) (A) (A) (A) (A) (A) (A) (A) (A) (A) (A) (A)
                 (A) (A) (A) (A) (A) (A) (A) (A) (A) (A) (A) (A)
                 (A) (A) (A) (A) (A) (A) (A) (A) (A) (A) (A) (A)
                 (A) (A) (A) (A) (A) (A) (A) (A) (A) (A) (A) (A)
                 (A) (A) (A) (A) (A) (A) (A) (A) (A) (A) (A) (A)
                 (A) (A) (A) (A) (A) (A) (A) (A) (A) (A) (A) (A)
                 (A) (A) (A) (A) (A) (A) (A) (A) (A) (A) (A) (A)
                 (A) (A) (A) (A) (A) (A) (A) (A) (A) (A) (A) (A)
                 (A) (A) (A) (A) (A) (A) (A) (A) (A) (A) (A) (A)
                 (A) (A) (A) (A) (A) (A) (A) (A) (A) (A) (A) (A)
                 (A) (A) (A) (A) (A) (A) (A) (A) (A) (A) (A) (A)
                 (A) (A) (A) (A) (A) (A) (A) (A) (A) (A) (A) (A)
                 (A) (A) (A) (A) (A) (A) (A) (A) (A) (A) (A) (A)
                 (A) (A) (A) (A) (A) (A) (A) (A) (A) (A) (A) (A)
                 (A) (A) (A) (A) (A) (A) (A) (A) (A) (A) (A) (A)
                 (A) (A) (A) (A) (A) (A) (A) (A) (A) (A) (A) (A)
                 (A) (A) (A) (A) (A) (A) (A) (A) (A) (A) (A) (A)
                 (A) (A) (A) (A) (A) (A) (A) (A) (A) (A) (A) (A)
                 (A) (A) (A) (A) (A) (A) (A) (A) (A) (A) (A) (A)
                 (A) (A) (A) (A) (A) (A) (A) (A) (A) (A) (A) (A)
                 (A) (A) (A) (A) (A) (A) (A) (A) (A) (A) (A) (A)
                 (A) (A) (A) (A) (A) (A) (A) (A) (A) (A) (A) (A)
                 (A) (A) (A) (A) (A) (A) (A) (A) (A) (A) (A) (A)
                 (A) (A) (A) (A) (A) (A) (A) (A) (A) (A) (A) (A)
                 (A) (A) (A) (A) (A) (A) (A) (A) (A) (A) (A) (A)
                 (A) (A) (A) (A) (A) (A) (A) (A) (A) (A) (A) (A)
                 (A) (A) (A) (A) (A) (A) (A) (A) (A) (A) (A) (A)
                 (A) (A) (A) (A) (A) (A) (A) (A) (A) (A) (A) (A)
                 (A) (A) (A) (A) (A) (A) (A) (A) (A) (A) (A) (A)
                 (A)
 The electronic state is 1-A.
 Alpha  occ. eigenvalues -- -101.52022 -24.44665 -10.15213 -10.15171 -10.14987
 Alpha  occ. eigenvalues --  -10.13647 -10.12348 -10.10307 -10.09540  -9.36937
 Alpha  occ. eigenvalues --   -7.07834  -7.07402  -7.07398  -0.85670  -0.72722
 Alpha  occ. eigenvalues --   -0.68636  -0.64755  -0.61095  -0.56697  -0.51224
 Alpha  occ. eigenvalues --   -0.48536  -0.45175  -0.39835  -0.35891  -0.35550
 Alpha  occ. eigenvalues --   -0.33747  -0.31429  -0.31141  -0.28897  -0.27508
 Alpha  occ. eigenvalues --   -0.27121  -0.25074  -0.24340  -0.22277  -0.21711
 Alpha  occ. eigenvalues --   -0.21212  -0.17197  -0.12852  -0.12725  -0.11133
 Alpha  occ. eigenvalues --   -0.11055  -0.10120
 Alpha virt. eigenvalues --    0.02560   0.04386   0.04592   0.05420   0.06994
 Alpha virt. eigenvalues --    0.07255   0.07641   0.07973   0.08503   0.08907
 Alpha virt. eigenvalues --    0.09360   0.09788   0.10362   0.10925   0.11619
 Alpha virt. eigenvalues --    0.12089   0.12167   0.12417   0.12577   0.13263
 Alpha virt. eigenvalues --    0.13878   0.14442   0.15018   0.15215   0.15655
 Alpha virt. eigenvalues --    0.15892   0.16704   0.16907   0.17323   0.17540
 Alpha virt. eigenvalues --    0.17629   0.18207   0.18536   0.18572   0.18910
 Alpha virt. eigenvalues --    0.19495   0.19805   0.20277   0.20634   0.20965
 Alpha virt. eigenvalues --    0.22163   0.22406   0.22708   0.22950   0.23871
 Alpha virt. eigenvalues --    0.23995   0.24733   0.25350   0.25474   0.25860
 Alpha virt. eigenvalues --    0.26335   0.26914   0.27207   0.27669   0.28803
 Alpha virt. eigenvalues --    0.29285   0.29566   0.30127   0.30757   0.31114
 Alpha virt. eigenvalues --    0.31615   0.32061   0.32311   0.32528   0.32786
 Alpha virt. eigenvalues --    0.33040   0.33203   0.34146   0.34260   0.34462
 Alpha virt. eigenvalues --    0.34734   0.35019   0.35434   0.35538   0.36017
 Alpha virt. eigenvalues --    0.36318   0.36390   0.36946   0.37193   0.37579
 Alpha virt. eigenvalues --    0.38034   0.38207   0.38237   0.38773   0.38940
 Alpha virt. eigenvalues --    0.39205   0.39708   0.40040   0.40165   0.40627
 Alpha virt. eigenvalues --    0.41033   0.41295   0.41630   0.41987   0.42236
 Alpha virt. eigenvalues --    0.42538   0.43189   0.43798   0.44203   0.44413
 Alpha virt. eigenvalues --    0.44953   0.45317   0.45571   0.45742   0.46369
 Alpha virt. eigenvalues --    0.46917   0.47167   0.47232   0.47614   0.48375
 Alpha virt. eigenvalues --    0.48638   0.48846   0.49452   0.49927   0.50044
 Alpha virt. eigenvalues --    0.50195   0.50571   0.51378   0.51544   0.52043
 Alpha virt. eigenvalues --    0.52654   0.53088   0.53799   0.54353   0.54626
 Alpha virt. eigenvalues --    0.55099   0.55171   0.55887   0.56151   0.56737
 Alpha virt. eigenvalues --    0.57239   0.57964   0.58421   0.58698   0.59412
 Alpha virt. eigenvalues --    0.59443   0.60134   0.61113   0.61374   0.61676
 Alpha virt. eigenvalues --    0.62553   0.62710   0.63479   0.63566   0.64353
 Alpha virt. eigenvalues --    0.64875   0.65430   0.65528   0.67375   0.68173
 Alpha virt. eigenvalues --    0.68930   0.69341   0.69590   0.70319   0.70366
 Alpha virt. eigenvalues --    0.70891   0.71438   0.72267   0.72636   0.73484
 Alpha virt. eigenvalues --    0.73840   0.74148   0.74762   0.75259   0.76071
 Alpha virt. eigenvalues --    0.76725   0.76992   0.77221   0.78193   0.78874
 Alpha virt. eigenvalues --    0.78932   0.79651   0.80162   0.80294   0.81159
 Alpha virt. eigenvalues --    0.81763   0.82053   0.82643   0.82822   0.84040
 Alpha virt. eigenvalues --    0.84430   0.84640   0.84842   0.85411   0.85792
 Alpha virt. eigenvalues --    0.86467   0.87135   0.87638   0.87834   0.88121
 Alpha virt. eigenvalues --    0.88735   0.89656   0.89828   0.90482   0.90816
 Alpha virt. eigenvalues --    0.91339   0.91721   0.92712   0.92809   0.93362
 Alpha virt. eigenvalues --    0.94011   0.94037   0.94679   0.95364   0.96412
 Alpha virt. eigenvalues --    0.96572   0.96797   0.97738   0.99172   0.99347
 Alpha virt. eigenvalues --    0.99733   0.99984   1.00618   1.01088   1.01861
 Alpha virt. eigenvalues --    1.02248   1.02511   1.03478   1.04077   1.04430
 Alpha virt. eigenvalues --    1.05012   1.05369   1.05648   1.06018   1.06633
 Alpha virt. eigenvalues --    1.06728   1.07288   1.07569   1.08195   1.08359
 Alpha virt. eigenvalues --    1.09127   1.09618   1.10050   1.10953   1.11067
 Alpha virt. eigenvalues --    1.11626   1.11795   1.12134   1.12596   1.13490
 Alpha virt. eigenvalues --    1.14460   1.15024   1.15328   1.15613   1.16644
 Alpha virt. eigenvalues --    1.16925   1.17079   1.17763   1.18172   1.18855
 Alpha virt. eigenvalues --    1.19190   1.19520   1.19849   1.20078   1.21105
 Alpha virt. eigenvalues --    1.22180   1.22926   1.23453   1.23780   1.24860
 Alpha virt. eigenvalues --    1.25155   1.26088   1.26706   1.27347   1.28057
 Alpha virt. eigenvalues --    1.28686   1.29016   1.30209   1.30517   1.31452
 Alpha virt. eigenvalues --    1.32872   1.33118   1.34122   1.35446   1.36525
 Alpha virt. eigenvalues --    1.37321   1.37950   1.38327   1.39032   1.40001
 Alpha virt. eigenvalues --    1.40513   1.41137   1.41809   1.42895   1.43165
 Alpha virt. eigenvalues --    1.44385   1.44794   1.45010   1.45689   1.46860
 Alpha virt. eigenvalues --    1.47202   1.47592   1.48696   1.49751   1.50025
 Alpha virt. eigenvalues --    1.50760   1.51039   1.51412   1.52225   1.52870
 Alpha virt. eigenvalues --    1.53045   1.53678   1.54148   1.55077   1.55257
 Alpha virt. eigenvalues --    1.55602   1.56569   1.57304   1.57785   1.58461
 Alpha virt. eigenvalues --    1.58875   1.59165   1.59519   1.59902   1.60757
 Alpha virt. eigenvalues --    1.61120   1.61721   1.62702   1.62971   1.63337
 Alpha virt. eigenvalues --    1.63934   1.64416   1.65104   1.65747   1.66172
 Alpha virt. eigenvalues --    1.66727   1.66989   1.67511   1.67941   1.68795
 Alpha virt. eigenvalues --    1.69170   1.69420   1.69815   1.70372   1.71559
 Alpha virt. eigenvalues --    1.72037   1.72356   1.73709   1.75031   1.75365
 Alpha virt. eigenvalues --    1.75750   1.76530   1.77633   1.78142   1.78438
 Alpha virt. eigenvalues --    1.78806   1.79488   1.80600   1.81566   1.81830
 Alpha virt. eigenvalues --    1.82346   1.83336   1.83825   1.84259   1.85295
 Alpha virt. eigenvalues --    1.85426   1.86505   1.87766   1.88470   1.89175
 Alpha virt. eigenvalues --    1.90146   1.90939   1.92194   1.93059   1.93161
 Alpha virt. eigenvalues --    1.94275   1.94861   1.95611   1.96763   1.97418
 Alpha virt. eigenvalues --    1.98726   1.99958   2.00583   2.02414   2.02501
 Alpha virt. eigenvalues --    2.03005   2.04319   2.04893   2.05516   2.06475
 Alpha virt. eigenvalues --    2.07313   2.08243   2.08385   2.10102   2.10534
 Alpha virt. eigenvalues --    2.11227   2.13002   2.13770   2.14532   2.15140
 Alpha virt. eigenvalues --    2.15714   2.16963   2.19173   2.19667   2.20074
 Alpha virt. eigenvalues --    2.20924   2.21419   2.23129   2.23917   2.25039
 Alpha virt. eigenvalues --    2.25192   2.27411   2.28393   2.28855   2.30350
 Alpha virt. eigenvalues --    2.31994   2.33186   2.33956   2.35337   2.36479
 Alpha virt. eigenvalues --    2.37339   2.39286   2.40040   2.43353   2.44088
 Alpha virt. eigenvalues --    2.45354   2.48819   2.51801   2.54800   2.56687
 Alpha virt. eigenvalues --    2.58665   2.61336   2.61928   2.62829   2.64463
 Alpha virt. eigenvalues --    2.66777   2.69278   2.71137   2.72403   2.74735
 Alpha virt. eigenvalues --    2.76318   2.78181   2.81045   2.85083   2.86427
 Alpha virt. eigenvalues --    2.89168   2.90768   2.95019   2.95626   2.99010
 Alpha virt. eigenvalues --    2.99321   3.00639   3.00887   3.01946   3.03430
 Alpha virt. eigenvalues --    3.04468   3.07375   3.08165   3.09059   3.10453
 Alpha virt. eigenvalues --    3.11455   3.12506   3.14188   3.16487   3.17420
 Alpha virt. eigenvalues --    3.18043   3.18840   3.19394   3.20561   3.21102
 Alpha virt. eigenvalues --    3.22427   3.22744   3.23942   3.25267   3.25462
 Alpha virt. eigenvalues --    3.27189   3.27605   3.28405   3.29271   3.29781
 Alpha virt. eigenvalues --    3.30951   3.32904   3.33591   3.34003   3.35003
 Alpha virt. eigenvalues --    3.36454   3.37589   3.38183   3.38612   3.39731
 Alpha virt. eigenvalues --    3.40005   3.41079   3.41503   3.44116   3.44616
 Alpha virt. eigenvalues --    3.44687   3.45779   3.46778   3.47518   3.48849
 Alpha virt. eigenvalues --    3.50947   3.51471   3.52756   3.54082   3.54612
 Alpha virt. eigenvalues --    3.55523   3.56789   3.58154   3.58378   3.58874
 Alpha virt. eigenvalues --    3.59662   3.60792   3.61600   3.63710   3.64125
 Alpha virt. eigenvalues --    3.64250   3.64804   3.66305   3.66731   3.67620
 Alpha virt. eigenvalues --    3.67901   3.69480   3.70884   3.71941   3.73201
 Alpha virt. eigenvalues --    3.73833   3.75716   3.75920   3.76538   3.78488
 Alpha virt. eigenvalues --    3.79029   3.79406   3.81372   3.81557   3.83283
 Alpha virt. eigenvalues --    3.84275   3.85614   3.87360   3.87851   3.90074
 Alpha virt. eigenvalues --    3.90428   3.91110   3.92645   3.93570   3.93949
 Alpha virt. eigenvalues --    3.94871   3.96615   3.97062   3.98362   3.98691
 Alpha virt. eigenvalues --    3.99912   4.00825   4.02092   4.03484   4.04616
 Alpha virt. eigenvalues --    4.06521   4.08278   4.09310   4.10492   4.11543
 Alpha virt. eigenvalues --    4.12381   4.14086   4.16289   4.16358   4.17106
 Alpha virt. eigenvalues --    4.19082   4.19446   4.21945   4.22791   4.24322
 Alpha virt. eigenvalues --    4.24735   4.26906   4.28249   4.29661   4.30642
 Alpha virt. eigenvalues --    4.31015   4.31677   4.32382   4.33888   4.36328
 Alpha virt. eigenvalues --    4.37070   4.38689   4.39982   4.40449   4.42620
 Alpha virt. eigenvalues --    4.43917   4.44719   4.44959   4.45623   4.48587
 Alpha virt. eigenvalues --    4.49119   4.49871   4.51780   4.53026   4.53247
 Alpha virt. eigenvalues --    4.54308   4.55973   4.56787   4.57462   4.58848
 Alpha virt. eigenvalues --    4.60637   4.61178   4.63196   4.64414   4.65619
 Alpha virt. eigenvalues --    4.66881   4.68182   4.69484   4.70900   4.72405
 Alpha virt. eigenvalues --    4.73350   4.74160   4.77017   4.77864   4.79464
 Alpha virt. eigenvalues --    4.80508   4.82154   4.83350   4.85388   4.88210
 Alpha virt. eigenvalues --    4.89512   4.89984   4.90735   4.92293   4.93199
 Alpha virt. eigenvalues --    4.94016   4.95761   4.97793   4.98337   4.99147
 Alpha virt. eigenvalues --    5.01286   5.02069   5.02605   5.04824   5.06077
 Alpha virt. eigenvalues --    5.06947   5.07914   5.08514   5.09483   5.10294
 Alpha virt. eigenvalues --    5.11365   5.12117   5.14217   5.14673   5.15858
 Alpha virt. eigenvalues --    5.16993   5.18787   5.20768   5.21568   5.22344
 Alpha virt. eigenvalues --    5.23087   5.24898   5.25563   5.27357   5.28308
 Alpha virt. eigenvalues --    5.29392   5.30352   5.31464   5.32657   5.35904
 Alpha virt. eigenvalues --    5.38106   5.39262   5.40093   5.42496   5.44259
 Alpha virt. eigenvalues --    5.46320   5.46834   5.48059   5.49258   5.51949
 Alpha virt. eigenvalues --    5.54026   5.54580   5.56353   5.59017   5.59677
 Alpha virt. eigenvalues --    5.61792   5.64105   5.65535   5.66889   5.68142
 Alpha virt. eigenvalues --    5.69856   5.70138   5.72262   5.74570   5.76110
 Alpha virt. eigenvalues --    5.77068   5.79144   5.79740   5.81263   5.83757
 Alpha virt. eigenvalues --    5.85527   5.86837   5.89329   5.94950   6.01106
 Alpha virt. eigenvalues --    6.05345   6.13899   6.18448   6.23806   6.28681
 Alpha virt. eigenvalues --    6.35845   6.37980   6.38179   6.44759   6.47425
 Alpha virt. eigenvalues --    6.47917   6.49231   6.54943   6.66677   6.76614
 Alpha virt. eigenvalues --    7.22208   8.71101   8.73392   8.84163   8.87909
 Alpha virt. eigenvalues --    8.98810   9.02720   9.13159   9.23871   9.30971
 Alpha virt. eigenvalues --    9.33394   9.36734   9.42787  13.84699  17.05415
 Alpha virt. eigenvalues --   17.21467  17.54815  17.66166  17.92536  18.39264
 Alpha virt. eigenvalues --   18.77905
          Condensed to atoms (all electrons):
               1          2          3          4          5          6
     1  C   12.700739  -0.341529  -0.517525  -1.599507  -0.269046  -0.108301
     2  H   -0.341529   0.774974  -0.469852  -0.051474   0.052351   0.038742
     3  H   -0.517525  -0.469852   0.802566   0.122911  -0.053876  -0.020717
     4  C   -1.599507  -0.051474   0.122911  12.804129  -0.931914  -0.465027
     5  H   -0.269046   0.052351  -0.053876  -0.931914   0.894666  -0.182695
     6  H   -0.108301   0.038742  -0.020717  -0.465027  -0.182695   0.674251
     7  C    0.039265   0.032720   0.137853  -2.503868   0.333646   0.089247
     8  H   -0.176198  -0.056467  -0.009004   0.168429   0.109037  -0.086595
     9  H   -0.103707  -0.082729   0.012208   0.185104  -0.109187   0.115629
    10  C   -0.291639   0.005625   0.000130   0.375649  -0.042829  -0.014979
    11  H   -0.000425  -0.000189   0.001203   0.049917  -0.057397  -0.036735
    12  H   -0.028770   0.002175  -0.000698   0.067870  -0.050815   0.001654
    13  Cl  -1.042413   0.072885   0.043956   0.128986   0.050624  -0.023261
    14  F   -0.254253   0.017047   0.003522   0.076203   0.012059   0.045230
    15  C   -0.157769  -0.000629   0.011324  -0.526640   0.112049   0.061074
    16  H   -0.000777   0.002701   0.000766  -0.008060   0.005240   0.005373
    17  H   -0.005889   0.002775   0.000309   0.019073   0.006084   0.006115
    18  C    0.001688   0.000064  -0.000059  -0.145667   0.019748   0.010847
    19  H    0.002547  -0.000243   0.000264   0.001671   0.003338   0.000079
    20  H    0.003094  -0.000374   0.000366   0.005952   0.000422   0.003779
    21  C   -0.001824   0.000260  -0.000180  -0.007448   0.002419   0.001575
    22  H    0.000830  -0.000065   0.000039  -0.001121  -0.000104  -0.000352
    23  H   -0.000232  -0.000020  -0.000013  -0.000464   0.000343   0.000049
    24  H    0.000447  -0.000084   0.000023  -0.000707  -0.000469  -0.000208
               7          8          9         10         11         12
     1  C    0.039265  -0.176198  -0.103707  -0.291639  -0.000425  -0.028770
     2  H    0.032720  -0.056467  -0.082729   0.005625  -0.000189   0.002175
     3  H    0.137853  -0.009004   0.012208   0.000130   0.001203  -0.000698
     4  C   -2.503868   0.168429   0.185104   0.375649   0.049917   0.067870
     5  H    0.333646   0.109037  -0.109187  -0.042829  -0.057397  -0.050815
     6  H    0.089247  -0.086595   0.115629  -0.014979  -0.036735   0.001654
     7  C   13.741044  -0.742219  -0.921232  -2.667893   0.061042   0.061733
     8  H   -0.742219   0.907920  -0.000896   0.111293   0.166980  -0.139666
     9  H   -0.921232  -0.000896   0.906080   0.203992  -0.086535   0.159222
    10  C   -2.667893   0.111293   0.203992  13.775122  -0.625125  -0.685428
    11  H    0.061042   0.166980  -0.086535  -0.625125   1.055773  -0.261190
    12  H    0.061733  -0.139666   0.159222  -0.685428  -0.261190   0.937092
    13  Cl   0.104962   0.021285   0.010445   0.131339   0.010277   0.011476
    14  F   -0.011248   0.024100   0.013909   0.031699   0.001259   0.001290
    15  C    0.374474   0.041624  -0.054191  -2.776492   0.000651   0.107913
    16  H   -0.013689  -0.006288  -0.115733   0.005099   0.176701  -0.163179
    17  H   -0.037862  -0.126887  -0.029229  -0.017963  -0.196681   0.161564
    18  C   -0.586333  -0.012559  -0.036204   0.295495  -0.033161  -0.010791
    19  H    0.058734   0.004533  -0.003670   0.065174   0.023323  -0.076574
    20  H    0.056266  -0.003876   0.002905   0.067040  -0.086873   0.021036
    21  C   -0.240615  -0.007698  -0.004736  -0.322552  -0.013274  -0.008543
    22  H    0.013748   0.000267   0.004649   0.045542  -0.001126   0.004814
    23  H    0.012663   0.000606   0.000422  -0.017544   0.000230   0.001310
    24  H    0.013115   0.004260   0.001007   0.044758   0.006444  -0.001110
              13         14         15         16         17         18
     1  C   -1.042413  -0.254253  -0.157769  -0.000777  -0.005889   0.001688
     2  H    0.072885   0.017047  -0.000629   0.002701   0.002775   0.000064
     3  H    0.043956   0.003522   0.011324   0.000766   0.000309  -0.000059
     4  C    0.128986   0.076203  -0.526640  -0.008060   0.019073  -0.145667
     5  H    0.050624   0.012059   0.112049   0.005240   0.006084   0.019748
     6  H   -0.023261   0.045230   0.061074   0.005373   0.006115   0.010847
     7  C    0.104962  -0.011248   0.374474  -0.013689  -0.037862  -0.586333
     8  H    0.021285   0.024100   0.041624  -0.006288  -0.126887  -0.012559
     9  H    0.010445   0.013909  -0.054191  -0.115733  -0.029229  -0.036204
    10  C    0.131339   0.031699  -2.776492   0.005099  -0.017963   0.295495
    11  H    0.010277   0.001259   0.000651   0.176701  -0.196681  -0.033161
    12  H    0.011476   0.001290   0.107913  -0.163179   0.161564  -0.010791
    13  Cl  18.245678   0.043845  -0.046872   0.000026  -0.009984   0.000518
    14  F    0.043845   9.737713   0.001136  -0.002087   0.000325   0.000253
    15  C   -0.046872   0.001136  13.123083  -0.577730  -0.567579  -2.153990
    16  H    0.000026  -0.002087  -0.577730   0.910328  -0.097468  -0.007614
    17  H   -0.009984   0.000325  -0.567579  -0.097468   0.960060   0.033131
    18  C    0.000518   0.000253  -2.153990  -0.007614   0.033131  12.483588
    19  H   -0.000217   0.000027   0.168187   0.110327  -0.073629  -0.422531
    20  H   -0.000823  -0.000161   0.175636  -0.082394   0.115659  -0.412436
    21  C    0.000000   0.000045  -0.019100   0.037634   0.021542  -2.076176
    22  H    0.000323  -0.000028  -0.028047  -0.058309  -0.007285   0.223994
    23  H   -0.000011   0.000005   0.075660   0.008347   0.007402   0.096118
    24  H    0.000047   0.000076  -0.026657  -0.007600  -0.059163   0.219298
              19         20         21         22         23         24
     1  C    0.002547   0.003094  -0.001824   0.000830  -0.000232   0.000447
     2  H   -0.000243  -0.000374   0.000260  -0.000065  -0.000020  -0.000084
     3  H    0.000264   0.000366  -0.000180   0.000039  -0.000013   0.000023
     4  C    0.001671   0.005952  -0.007448  -0.001121  -0.000464  -0.000707
     5  H    0.003338   0.000422   0.002419  -0.000104   0.000343  -0.000469
     6  H    0.000079   0.003779   0.001575  -0.000352   0.000049  -0.000208
     7  C    0.058734   0.056266  -0.240615   0.013748   0.012663   0.013115
     8  H    0.004533  -0.003876  -0.007698   0.000267   0.000606   0.004260
     9  H   -0.003670   0.002905  -0.004736   0.004649   0.000422   0.001007
    10  C    0.065174   0.067040  -0.322552   0.045542  -0.017544   0.044758
    11  H    0.023323  -0.086873  -0.013274  -0.001126   0.000230   0.006444
    12  H   -0.076574   0.021036  -0.008543   0.004814   0.001310  -0.001110
    13  Cl  -0.000217  -0.000823   0.000000   0.000323  -0.000011   0.000047
    14  F    0.000027  -0.000161   0.000045  -0.000028   0.000005   0.000076
    15  C    0.168187   0.175636  -0.019100  -0.028047   0.075660  -0.026657
    16  H    0.110327  -0.082394   0.037634  -0.058309   0.008347  -0.007600
    17  H   -0.073629   0.115659   0.021542  -0.007285   0.007402  -0.059163
    18  C   -0.422531  -0.412436  -2.076176   0.223994   0.096118   0.219298
    19  H    0.520916  -0.000336  -0.252003  -0.009133  -0.015211   0.064045
    20  H   -0.000336   0.519554  -0.246561   0.064280  -0.017315  -0.012442
    21  C   -0.252003  -0.246561  12.969371  -0.342624  -0.107193  -0.330723
    22  H   -0.009133   0.064280  -0.342624   0.387194  -0.091070   0.042444
    23  H   -0.015211  -0.017315  -0.107193  -0.091070   0.390876  -0.088019
    24  H    0.064045  -0.012442  -0.330723   0.042444  -0.088019   0.382890
 Mulliken charges:
               1
     1  C   -1.848804
     2  H    1.001336
     3  H    0.934484
     4  C   -1.763996
     5  H    1.096305
     6  H    0.885227
     7  C   -1.405554
     8  H    0.808018
     9  H    0.932477
    10  C   -1.695513
    11  H    0.844911
    12  H    0.887617
    13  Cl  -0.753091
    14  F   -0.741964
    15  C   -1.317116
    16  H    0.878387
    17  H    0.895580
    18  C   -1.487223
    19  H    0.830382
    20  H    0.827600
    21  C   -3.051596
    22  H    0.751141
    23  H    0.743062
    24  H    0.748330
 Sum of Mulliken charges =  -1.00000
 Mulliken charges with hydrogens summed into heavy atoms:
               1
     1  C    0.087016
     4  C    0.217536
     7  C    0.334942
    10  C    0.037016
    13  Cl  -0.753091
    14  F   -0.741964
    15  C    0.456851
    18  C    0.170759
    21  C   -0.809063
 APT charges:
               1
     1  C   -2.775613
     2  H    0.762843
     3  H    1.796978
     4  C   -2.323118
     5  H    1.224568
     6  H    1.118510
     7  C   -0.876687
     8  H    0.898534
     9  H    0.867875
    10  C   -1.831884
    11  H    0.933996
    12  H    1.137602
    13  Cl  -0.504532
    14  F   -0.714829
    15  C   -0.779524
    16  H    1.011208
    17  H    0.883067
    18  C   -1.581630
    19  H    1.245941
    20  H    1.330312
    21  C   -7.453701
    22  H    1.084840
    23  H    2.385787
    24  H    1.159455
 Sum of APT charges =  -1.00000
 APT charges with hydrogens summed into heavy atoms:
               1
     1  C   -0.215791
     4  C    0.019959
     7  C    0.889722
    10  C    0.239715
    13  Cl  -0.504532
    14  F   -0.714829
    15  C    1.114751
    18  C    0.994624
    21  C   -2.823619
 Electronic spatial extent (au):  <R**2>=           3161.2810
 Charge=             -1.0000 electrons
 Dipole moment (field-independent basis, Debye):
    X=            -11.5704    Y=             -2.8277    Z=              1.3491  Tot=             11.9871
 Quadrupole moment (field-independent basis, Debye-Ang):
   XX=           -109.8278   YY=            -99.6952   ZZ=            -70.0545
   XY=             -4.3966   XZ=              3.4350   YZ=              2.4505
 Traceless Quadrupole moment (field-independent basis, Debye-Ang):
   XX=            -16.6353   YY=             -6.5027   ZZ=             23.1380
   XY=             -4.3966   XZ=              3.4350   YZ=              2.4505
 Octapole moment (field-independent basis, Debye-Ang**2):
  XXX=            -56.7861  YYY=            -35.4174  ZZZ=             -2.5865  XYY=            -78.0149
  XXY=              8.0048  XXZ=             12.8040  XZZ=              5.3779  YZZ=              3.8723
  YYZ=              9.1644  XYZ=              6.9480
 Hexadecapole moment (field-independent basis, Debye-Ang**3):
 XXXX=          -3964.5970 YYYY=           -822.4823 ZZZZ=           -215.5330 XXXY=             53.3474
 XXXZ=              3.7461 YYYX=            -79.6000 YYYZ=             18.7572 ZZZX=             -4.7467
 ZZZY=             -5.5507 XXYY=           -902.1792 XXZZ=           -630.6596 YYZZ=           -146.0679
 XXYZ=             10.2140 YYXZ=             23.2059 ZZXY=              8.8602
 N-N= 5.147354153661D+02 E-N=-3.013011769771D+03  KE= 8.319677548037D+02
  Exact polarizability:   0.000   0.000   0.000   0.000   0.000   0.000
 Approx polarizability: 152.519 -10.118 203.021  -0.978  -1.066 153.313
 Calling FoFJK, ICntrl=    100147 FMM=F ISym2X=0 I1Cent= 0 IOpClX= 0 NMat=1 NMatS=1 NMatT=0.
 ***** Axes restored to original set *****
 -------------------------------------------------------------------
 Center     Atomic                   Forces (Hartrees/Bohr)
 Number     Number              X              Y              Z
 -------------------------------------------------------------------
      1        6          -0.000001897   -0.000032610    0.000017399
      2        1           0.000001770    0.000001385    0.000011737
      3        1           0.000002542    0.000026352    0.000010900
      4        6           0.000015417    0.000042412   -0.000021198
      5        1          -0.000024327    0.000012543    0.000025261
      6        1           0.000007536    0.000019645    0.000023983
      7        6          -0.000003331   -0.000005274    0.000006321
      8        1           0.000008630   -0.000013686    0.000013015
      9        1          -0.000003307   -0.000006902   -0.000012517
     10        6           0.000000663    0.000006557   -0.000002632
     11        1          -0.000002223    0.000015099   -0.000010951
     12        1          -0.000001017    0.000010885    0.000011965
     13       17           0.000007637    0.000019939   -0.000026873
     14        9          -0.000000766    0.000016402    0.000032420
     15        6          -0.000003345   -0.000002439    0.000000388
     16        1           0.000008211   -0.000022116    0.000006618
     17        1          -0.000004408   -0.000014734   -0.000017439
     18        6          -0.000000402    0.000005758   -0.000015472
     19        1          -0.000004871    0.000001842   -0.000009799
     20        1           0.000000327    0.000000844    0.000004002
     21        6          -0.000001682   -0.000014853   -0.000008057
     22        1          -0.000003592   -0.000025168   -0.000026643
     23        1          -0.000002237   -0.000013179   -0.000013370
     24        1           0.000004674   -0.000028701    0.000000942
 -------------------------------------------------------------------
 Cartesian Forces:  Max     0.000042412 RMS     0.000014688
 FormGI is forming the generalized inverse of G from B-inverse, IUseBI=4.
 GSVD:  received Info=                   1 from GESDD.

[...]
 Alpha virt. eigenvalues --    1.06725   1.07286   1.07567   1.08194   1.08359
 Alpha virt. eigenvalues --    1.09123   1.09614   1.10051   1.10956   1.11068
 Alpha virt. eigenvalues --    1.11624   1.11794   1.12140   1.12594   1.13491
 Alpha virt. eigenvalues --    1.14464   1.15024   1.15326   1.15615   1.16643
 Alpha virt. eigenvalues --    1.16921   1.17080   1.17765   1.18169   1.18856
 Alpha virt. eigenvalues --    1.19186   1.19520   1.19847   1.20076   1.21102
 Alpha virt. eigenvalues --    1.22185   1.22926   1.23457   1.23780   1.24858
 Alpha virt. eigenvalues --    1.25149   1.26086   1.26709   1.27347   1.28057
 Alpha virt. eigenvalues --    1.28689   1.29017   1.30208   1.30516   1.31449
 Alpha virt. eigenvalues --    1.32877   1.33122   1.34115   1.35440   1.36522
 Alpha virt. eigenvalues --    1.37321   1.37947   1.38329   1.39041   1.40001
 Alpha virt. eigenvalues --    1.40512   1.41133   1.41811   1.42891   1.43163
 Alpha virt. eigenvalues --    1.44381   1.44795   1.45012   1.45691   1.46856
 Alpha virt. eigenvalues --    1.47200   1.47593   1.48695   1.49760   1.50025
 Alpha virt. eigenvalues --    1.50758   1.51038   1.51413   1.52226   1.52875
 Alpha virt. eigenvalues --    1.53036   1.53677   1.54149   1.55072   1.55257
 Alpha virt. eigenvalues --    1.55602   1.56566   1.57309   1.57783   1.58463
 Alpha virt. eigenvalues --    1.58878   1.59162   1.59522   1.59901   1.60754
 Alpha virt. eigenvalues --    1.61116   1.61718   1.62701   1.62969   1.63335
 Alpha virt. eigenvalues --    1.63931   1.64412   1.65107   1.65750   1.66169
 Alpha virt. eigenvalues --    1.66725   1.66996   1.67515   1.67945   1.68794
 Alpha virt. eigenvalues --    1.69171   1.69416   1.69815   1.70374   1.71555
 Alpha virt. eigenvalues --    1.72039   1.72356   1.73704   1.75030   1.75366
 Alpha virt. eigenvalues --    1.75750   1.76533   1.77628   1.78138   1.78439
 Alpha virt. eigenvalues --    1.78801   1.79483   1.80598   1.81561   1.81830
 Alpha virt. eigenvalues --    1.82352   1.83345   1.83823   1.84256   1.85293
 Alpha virt. eigenvalues --    1.85426   1.86509   1.87765   1.88471   1.89171
 Alpha virt. eigenvalues --    1.90150   1.90943   1.92197   1.93058   1.93161
 Alpha virt. eigenvalues --    1.94272   1.94858   1.95609   1.96758   1.97426
 Alpha virt. eigenvalues --    1.98724   1.99955   2.00579   2.02415   2.02497
 Alpha virt. eigenvalues --    2.03001   2.04322   2.04889   2.05517   2.06472
 Alpha virt. eigenvalues --    2.07311   2.08246   2.08385   2.10103   2.10539
 Alpha virt. eigenvalues --    2.11216   2.13002   2.13759   2.14531   2.15139
 Alpha virt. eigenvalues --    2.15710   2.16966   2.19170   2.19664   2.20069
 Alpha virt. eigenvalues --    2.20924   2.21415   2.23127   2.23916   2.25043
 Alpha virt. eigenvalues --    2.25189   2.27410   2.28394   2.28857   2.30344
 Alpha virt. eigenvalues --    2.31996   2.33190   2.33957   2.35331   2.36484
 Alpha virt. eigenvalues --    2.37336   2.39294   2.40032   2.43355   2.44090
 Alpha virt. eigenvalues --    2.45348   2.48824   2.51794   2.54801   2.56690
 Alpha virt. eigenvalues --    2.58675   2.61346   2.61928   2.62832   2.64471
 Alpha virt. eigenvalues --    2.66773   2.69277   2.71130   2.72407   2.74737
 Alpha virt. eigenvalues --    2.76323   2.78179   2.81045   2.85089   2.86430
 Alpha virt. eigenvalues --    2.89167   2.90773   2.95018   2.95629   2.99010
 Alpha virt. eigenvalues --    2.99324   3.00640   3.00889   3.01943   3.03430
 Alpha virt. eigenvalues --    3.04471   3.07368   3.08161   3.09066   3.10460
 Alpha virt. eigenvalues --    3.11457   3.12496   3.14189   3.16488   3.17423
 Alpha virt. eigenvalues --    3.18045   3.18844   3.19387   3.20559   3.21107
 Alpha virt. eigenvalues --    3.22435   3.22745   3.23945   3.25264   3.25467
 Alpha virt. eigenvalues --    3.27180   3.27611   3.28405   3.29263   3.29778
 Alpha virt. eigenvalues --    3.30954   3.32906   3.33587   3.33999   3.35007
 Alpha virt. eigenvalues --    3.36451   3.37588   3.38182   3.38609   3.39735
 Alpha virt. eigenvalues --    3.40003   3.41076   3.41499   3.44117   3.44613
 Alpha virt. eigenvalues --    3.44686   3.45784   3.46779   3.47517   3.48849
 Alpha virt. eigenvalues --    3.50945   3.51470   3.52757   3.54078   3.54611
 Alpha virt. eigenvalues --    3.55519   3.56785   3.58159   3.58372   3.58879
 Alpha virt. eigenvalues --    3.59656   3.60791   3.61596   3.63706   3.64131
 Alpha virt. eigenvalues --    3.64251   3.64806   3.66302   3.66731   3.67622
 Alpha virt. eigenvalues --    3.67904   3.69479   3.70882   3.71942   3.73200
 Alpha virt. eigenvalues --    3.73836   3.75717   3.75917   3.76536   3.78486
 Alpha virt. eigenvalues --    3.79032   3.79405   3.81368   3.81555   3.83286
 Alpha virt. eigenvalues --    3.84275   3.85612   3.87357   3.87850   3.90078
 Alpha virt. eigenvalues --    3.90427   3.91109   3.92647   3.93567   3.93952
 Alpha virt. eigenvalues --    3.94869   3.96616   3.97066   3.98360   3.98690
 Alpha virt. eigenvalues --    3.99907   4.00823   4.02093   4.03475   4.04617
 Alpha virt. eigenvalues --    4.06514   4.08275   4.09313   4.10496   4.11542
 Alpha virt. eigenvalues --    4.12386   4.14082   4.16284   4.16350   4.17101
 Alpha virt. eigenvalues --    4.19081   4.19447   4.21945   4.22791   4.24329
 Alpha virt. eigenvalues --    4.24736   4.26915   4.28239   4.29658   4.30639
 Alpha virt. eigenvalues --    4.31017   4.31679   4.32379   4.33885   4.36332
 Alpha virt. eigenvalues --    4.37069   4.38685   4.39981   4.40451   4.42622
 Alpha virt. eigenvalues --    4.43912   4.44720   4.44959   4.45626   4.48589
 Alpha virt. eigenvalues --    4.49120   4.49873   4.51774   4.53028   4.53248
 Alpha virt. eigenvalues --    4.54306   4.55973   4.56787   4.57466   4.58850
 Alpha virt. eigenvalues --    4.60642   4.61173   4.63196   4.64412   4.65623
 Alpha virt. eigenvalues --    4.66877   4.68180   4.69486   4.70899   4.72403
 Alpha virt. eigenvalues --    4.73351   4.74158   4.77021   4.77862   4.79463
 Alpha virt. eigenvalues --    4.80502   4.82151   4.83346   4.85392   4.88209
 Alpha virt. eigenvalues --    4.89513   4.89984   4.90741   4.92289   4.93200
 Alpha virt. eigenvalues --    4.94017   4.95754   4.97795   4.98339   4.99152
 Alpha virt. eigenvalues --    5.01289   5.02069   5.02593   5.04821   5.06076
 Alpha virt. eigenvalues --    5.06956   5.07918   5.08507   5.09485   5.10285
 Alpha virt. eigenvalues --    5.11364   5.12113   5.14223   5.14679   5.15862
 Alpha virt. eigenvalues --    5.16991   5.18785   5.20767   5.21568   5.22344
 Alpha virt. eigenvalues --    5.23081   5.24893   5.25574   5.27356   5.28304
 Alpha virt. eigenvalues --    5.29392   5.30354   5.31468   5.32656   5.35901
 Alpha virt. eigenvalues --    5.38107   5.39265   5.40095   5.42501   5.44257
 Alpha virt. eigenvalues --    5.46317   5.46832   5.48062   5.49256   5.51957
 Alpha virt. eigenvalues --    5.54011   5.54580   5.56344   5.59023   5.59676
 Alpha virt. eigenvalues --    5.61787   5.64103   5.65532   5.66886   5.68138
 Alpha virt. eigenvalues --    5.69856   5.70128   5.72258   5.74575   5.76103
 Alpha virt. eigenvalues --    5.77064   5.79146   5.79739   5.81250   5.83762
 Alpha virt. eigenvalues --    5.85529   5.86832   5.89323   5.94952   6.01124
 Alpha virt. eigenvalues --    6.05344   6.13897   6.18448   6.23807   6.28685
 Alpha virt. eigenvalues --    6.35847   6.37979   6.38181   6.44759   6.47425
 Alpha virt. eigenvalues --    6.47915   6.49229   6.54940   6.66672   6.76610
 Alpha virt. eigenvalues --    7.22215   8.71093   8.73388   8.84160   8.87906
 Alpha virt. eigenvalues --    8.98821   9.02721   9.13158   9.23868   9.30959
 Alpha virt. eigenvalues --    9.33388   9.36729   9.42783  13.84701  17.05430
 Alpha virt. eigenvalues --   17.21489  17.54825  17.66171  17.92550  18.39277
 Alpha virt. eigenvalues --   18.77897
          Condensed to atoms (all electrons):
               1          2          3          4          5          6
     1  C   12.700074  -0.341720  -0.517142  -1.599387  -0.268881  -0.108260
     2  H   -0.341720   0.775481  -0.470339  -0.051483   0.052390   0.038918
     3  H   -0.517142  -0.470339   0.803020   0.122617  -0.053989  -0.020666
     4  C   -1.599387  -0.051483   0.122617  12.803236  -0.929645  -0.466779
     5  H   -0.268881   0.052390  -0.053989  -0.929645   0.893324  -0.182182
     6  H   -0.108260   0.038918  -0.020666  -0.466779  -0.182182   0.674196
     7  C    0.038985   0.032584   0.137911  -2.503873   0.333201   0.089710
     8  H   -0.176382  -0.056442  -0.008995   0.168673   0.109175  -0.086651
     9  H   -0.103642  -0.082758   0.012224   0.185270  -0.109166   0.115444
    10  C   -0.291505   0.005602   0.000089   0.375738  -0.042584  -0.015075
    11  H   -0.000394  -0.000183   0.001206   0.049170  -0.057072  -0.036760
    12  H   -0.028782   0.002155  -0.000699   0.068630  -0.050960   0.001623
    13  Cl  -1.041839   0.072789   0.043718   0.128939   0.050585  -0.023249
    14  F   -0.254337   0.016953   0.003530   0.076203   0.012095   0.045106
    15  C   -0.157604  -0.000624   0.011336  -0.526822   0.111844   0.061214
    16  H   -0.000752   0.002699   0.000767  -0.008174   0.005232   0.005385
    17  H   -0.005888   0.002771   0.000309   0.019107   0.006047   0.006123
    18  C    0.001704   0.000069  -0.000060  -0.145677   0.019718   0.010880
    19  H    0.002542  -0.000244   0.000264   0.001632   0.003337   0.000081
    20  H    0.003100  -0.000373   0.000366   0.005976   0.000422   0.003781
    21  C   -0.001816   0.000260  -0.000180  -0.007443   0.002418   0.001574
    22  H    0.000829  -0.000065   0.000039  -0.001116  -0.000105  -0.000351
    23  H   -0.000232  -0.000020  -0.000013  -0.000465   0.000342   0.000049
    24  H    0.000447  -0.000084   0.000023  -0.000711  -0.000469  -0.000208
               7          8          9         10         11         12
     1  C    0.038985  -0.176382  -0.103642  -0.291505  -0.000394  -0.028782
     2  H    0.032584  -0.056442  -0.082758   0.005602  -0.000183   0.002155
     3  H    0.137911  -0.008995   0.012224   0.000089   0.001206  -0.000699
     4  C   -2.503873   0.168673   0.185270   0.375738   0.049170   0.068630
     5  H    0.333201   0.109175  -0.109166  -0.042584  -0.057072  -0.050960
     6  H    0.089710  -0.086651   0.115444  -0.015075  -0.036760   0.001623
     7  C   13.739600  -0.743645  -0.919077  -2.667596   0.061029   0.062132
     8  H   -0.743645   0.907863  -0.001280   0.111790   0.166900  -0.139392
     9  H   -0.919077  -0.001280   0.905998   0.203281  -0.087076   0.159396
    10  C   -2.667596   0.111790   0.203281  13.775180  -0.625839  -0.685498
    11  H    0.061029   0.166900  -0.087076  -0.625839   1.055350  -0.261271
    12  H    0.062132  -0.139392   0.159396  -0.685498  -0.261271   0.937370
    13  Cl   0.104761   0.021279   0.010542   0.131245   0.010285   0.011465
    14  F   -0.011017   0.023997   0.013913   0.031725   0.001255   0.001294
    15  C    0.374864   0.041960  -0.054416  -2.776323   0.000989   0.107903
    16  H   -0.014063  -0.006287  -0.115730   0.004897   0.176824  -0.163656
    17  H   -0.037507  -0.126850  -0.029080  -0.017712  -0.196100   0.161543
    18  C   -0.586360  -0.012507  -0.036292   0.295698  -0.032253  -0.011718
    19  H    0.058702   0.004527  -0.003659   0.064999   0.023266  -0.076529
    20  H    0.056315  -0.003890   0.002917   0.067260  -0.086894   0.021102
    21  C   -0.240576  -0.007671  -0.004754  -0.322463  -0.013232  -0.008572
    22  H    0.013759   0.000267   0.004648   0.045550  -0.001139   0.004814
    23  H    0.012666   0.000607   0.000420  -0.017554   0.000232   0.001308
    24  H    0.013097   0.004258   0.001006   0.044719   0.006438  -0.001097
              13         14         15         16         17         18
     1  C   -1.041839  -0.254337  -0.157604  -0.000752  -0.005888   0.001704
     2  H    0.072789   0.016953  -0.000624   0.002699   0.002771   0.000069
     3  H    0.043718   0.003530   0.011336   0.000767   0.000309  -0.000060
     4  C    0.128939   0.076203  -0.526822  -0.008174   0.019107  -0.145677
     5  H    0.050585   0.012095   0.111844   0.005232   0.006047   0.019718
     6  H   -0.023249   0.045106   0.061214   0.005385   0.006123   0.010880
     7  C    0.104761  -0.011017   0.374864  -0.014063  -0.037507  -0.586360
     8  H    0.021279   0.023997   0.041960  -0.006287  -0.126850  -0.012507
     9  H    0.010542   0.013913  -0.054416  -0.115730  -0.029080  -0.036292
    10  C    0.131245   0.031725  -2.776323   0.004897  -0.017712   0.295698
    11  H    0.010285   0.001255   0.000989   0.176824  -0.196100  -0.032253
    12  H    0.011465   0.001294   0.107903  -0.163656   0.161543  -0.011718
    13  Cl  18.245856   0.043857  -0.046884   0.000026  -0.009997   0.000523
    14  F    0.043857   9.737751   0.001135  -0.002085   0.000325   0.000253
    15  C   -0.046884   0.001135  13.123102  -0.577077  -0.568551  -2.154277
    16  H    0.000026  -0.002085  -0.577077   0.910818  -0.097505  -0.007710
    17  H   -0.009997   0.000325  -0.568551  -0.097505   0.959602   0.033215
    18  C    0.000523   0.000253  -2.154277  -0.007710   0.033215  12.483937
    19  H   -0.000217   0.000027   0.168169   0.110338  -0.073772  -0.421766
    20  H   -0.000823  -0.000161   0.175597  -0.082227   0.115623  -0.413319
    21  C    0.000001   0.000045  -0.019237   0.037957   0.021237  -2.076338
    22  H    0.000323  -0.000028  -0.028177  -0.058381  -0.007219   0.224147
    23  H   -0.000011   0.000005   0.075656   0.008379   0.007375   0.096153
    24  H    0.000047   0.000076  -0.026502  -0.007665  -0.059096   0.219161
              19         20         21         22         23         24
     1  C    0.002542   0.003100  -0.001816   0.000829  -0.000232   0.000447
     2  H   -0.000244  -0.000373   0.000260  -0.000065  -0.000020  -0.000084
     3  H    0.000264   0.000366  -0.000180   0.000039  -0.000013   0.000023
     4  C    0.001632   0.005976  -0.007443  -0.001116  -0.000465  -0.000711
     5  H    0.003337   0.000422   0.002418  -0.000105   0.000342  -0.000469
     6  H    0.000081   0.003781   0.001574  -0.000351   0.000049  -0.000208
     7  C    0.058702   0.056315  -0.240576   0.013759   0.012666   0.013097
     8  H    0.004527  -0.003890  -0.007671   0.000267   0.000607   0.004258
     9  H   -0.003659   0.002917  -0.004754   0.004648   0.000420   0.001006
    10  C    0.064999   0.067260  -0.322463   0.045550  -0.017554   0.044719
    11  H    0.023266  -0.086894  -0.013232  -0.001139   0.000232   0.006438
    12  H   -0.076529   0.021102  -0.008572   0.004814   0.001308  -0.001097
    13  Cl  -0.000217  -0.000823   0.000001   0.000323  -0.000011   0.000047
    14  F    0.000027  -0.000161   0.000045  -0.000028   0.000005   0.000076
    15  C    0.168169   0.175597  -0.019237  -0.028177   0.075656  -0.026502
    16  H    0.110338  -0.082227   0.037957  -0.058381   0.008379  -0.007665
    17  H   -0.073772   0.115623   0.021237  -0.007219   0.007375  -0.059096
    18  C   -0.421766  -0.413319  -2.076338   0.224147   0.096153   0.219161
    19  H    0.520867  -0.000328  -0.251904  -0.009206  -0.015125   0.063997
    20  H   -0.000328   0.519637  -0.246671   0.064329  -0.017395  -0.012361
    21  C   -0.251904  -0.246671  12.969504  -0.342593  -0.107196  -0.330756
    22  H   -0.009206   0.064329  -0.342593   0.387230  -0.091060   0.042442
    23  H   -0.015125  -0.017395  -0.107196  -0.091060   0.390837  -0.088014
    24  H    0.063997  -0.012361  -0.330756   0.042442  -0.088014   0.382843
 Mulliken charges:
               1
     1  C   -1.849118
     2  H    1.001664
     3  H    0.934663
     4  C   -1.763614
     5  H    1.094922
     6  H    0.886098
     7  C   -1.405602
     8  H    0.808694
     9  H    0.931871
    10  C   -1.695625
    11  H    0.845269
    12  H    0.887439
    13  Cl  -0.753221
    14  F   -0.741918
    15  C   -1.317277
    16  H    0.877990
    17  H    0.896001
    18  C   -1.487182
    19  H    0.829999
    20  H    0.828015
    21  C   -3.051594
    22  H    0.751063
    23  H    0.743055
    24  H    0.748409
 Sum of Mulliken charges =  -1.00000
 Mulliken charges with hydrogens summed into heavy atoms:
               1
     1  C    0.087210
     4  C    0.217406
     7  C    0.334962
    10  C    0.037083
    13  Cl  -0.753221
    14  F   -0.741918
    15  C    0.456714
    18  C    0.170832
    21  C   -0.809067
 Electronic spatial extent (au):  <R**2>=           3161.1695
 Charge=             -1.0000 electrons
 Dipole moment (field-independent basis, Debye):
    X=            -11.5728    Y=             -2.8246    Z=              1.3481  Tot=             11.9885
 Quadrupole moment (field-independent basis, Debye-Ang):
   XX=           -109.8350   YY=            -99.6971   ZZ=            -70.0540
   XY=             -4.4040   XZ=              3.4336   YZ=              2.4482
 Traceless Quadrupole moment (field-independent basis, Debye-Ang):
   XX=            -16.6397   YY=             -6.5017   ZZ=             23.1414
   XY=             -4.4040   XZ=              3.4336   YZ=              2.4482
 Octapole moment (field-independent basis, Debye-Ang**2):
  XXX=            -56.7895  YYY=            -35.3742  ZZZ=             -2.5863  XYY=            -78.0552
  XXY=              7.9300  XXZ=             12.8054  XZZ=              5.3814  YZZ=              3.8744
  YYZ=              9.1578  XYZ=              6.9441
 Hexadecapole moment (field-independent basis, Debye-Ang**3):
 XXXX=          -3964.2171 YYYY=           -822.5778 ZZZZ=           -215.5174 XXXY=             53.0945
 XXXZ=              3.7519 YYYX=            -79.5746 YYYZ=             18.7336 ZZZX=             -4.7496
 ZZZY=             -5.5464 XXYY=           -902.3201 XXZZ=           -630.5970 YYZZ=           -146.0811
 XXYZ=             10.2309 YYXZ=             23.2035 ZZXY=              8.8704
 N-N= 5.147387511155D+02 E-N=-3.013018421699D+03  KE= 8.319678179788D+02
 1\1\GINC-NODE0154\FTS\RM06\Aug-CC-pVTZ\C7H15Cl1F1(1-)\GRAHA682\12-Jul-
 2017\0\\# opt=(calcfc,ts) aug-cc-pvtz geom=connectivity m06\\Title Car
 d Required\\-1,1\C,-2.5474653077,0.4529684604,0.0629292049\H,-2.538406
 2052,0.5267578087,1.1336609653\H,-3.4610880354,0.7210478469,-0.4329556
 913\C,-1.2678864191,0.4361339385,-0.7000985071\H,-1.3216835818,-0.3126
 234079,-1.496356228\H,-1.1748977408,1.4253005028,-1.1551203825\C,-0.07
 15640325,0.1704695138,0.1861003095\H,-0.0430718918,0.9472016567,0.9587
 315859\H,-0.2100071172,-0.7903646446,0.6970091037\C,1.2373824058,0.160
 6902361,-0.574405792\H,1.2024127582,-0.6116853787,-1.3544522919\H,1.35
 81828078,1.1158094583,-1.1021396611\Cl,-3.0290194432,-1.6807775847,0.1
 189749707\F,-2.3901048547,2.5165399195,0.3422853652\C,2.4439457038,-0.
 0772346442,0.3096174575\H,2.4798204488,0.6949415731,1.0888090594\H,2.3
 232581977,-1.0300971735,0.8411315177\C,3.758623161,-0.0877908089,-0.44
 43465664\H,3.7205461784,-0.8601447324,-1.2209055773\H,3.875268425,0.86
 39315474,-0.9749326578\C,4.9514083735,-0.3237396772,0.4589770132\H,4.8
 624458948,-1.2817695014,0.9775805282\H,5.8945111359,-0.3294776292,-0.0
 909120503\H,5.0179781387,0.4525607206,1.2255523245\\Version=ES64L-G09R
 evD.01\State=1-A\HF=-835.7365731\RMSD=7.132e-09\RMSF=1.136e-05\Dipole=
 4.5529961,-1.1115649,-0.5303973\Quadrupole=-12.3708072,-4.833703,17.20
 45102,3.2744759,2.5520467,-1.8248078\PG=C01 [X(C7H15Cl1F1)]\\@


 TO BEHOLD HARMS OF OUR OWN HANDS DOING,
 WHERE NONE BESIDE US WROUGHT,
 CAUSES SHARP RUING...

                                         SOPHOCLES
 Job cpu time:       7 days  7 hours 17 minutes 40.6 seconds.
 File lengths (MBytes):  RWF=   2061 Int=      0 D2E=      0 Chk=     42 Scr=      1
 Normal termination of Gaussian 09 at Wed Jul 12 11:39:28 2017.
630125.01user 935.84system 21:57:18elapsed 798%CPU (0avgtext+0avgdata 6076512maxresident)k
691008inputs+19689008outputs (498major+478540035minor)pagefaults 0swaps
