 Entering Gaussian System, Link 0=g09
 Initial command:
 /panfs/roc/msisoft/gaussian/g09.e01_mesabi/g09/l1.exe "/scratch/graha682/4540356.mesabim3.msi.umn.edu/Gau-13934.inp" -scrdir="/scratch/graha682/4540356.mesabim3.msi.umn.edu/"
 Entering Link 1 = /panfs/roc/msisoft/gaussian/g09.e01_mesabi/g09/l1.exe PID=     13935.
  
 Copyright (c) 1988,1990,1992,1993,1995,1998,2003,2009,2015,
            Gaussian, Inc.  All Rights Reserved.
  
 This is part of the Gaussian(R) 09 program.  It is based on
 the Gaussian(R) 03 system (copyright 2003, Gaussian, Inc.),
 the Gaussian(R) 98 system (copyright 1998, Gaussian, Inc.),
 the Gaussian(R) 94 system (copyright 1995, Gaussian, Inc.),
 the Gaussian 92(TM) system (copyright 1992, Gaussian, Inc.),
 the Gaussian 90(TM) system (copyright 1990, Gaussian, Inc.),
 the Gaussian 88(TM) system (copyright 1988, Gaussian, Inc.),
 the Gaussian 86(TM) system (copyright 1986, Carnegie Mellon
 University), and the Gaussian 82(TM) system (copyright 1983,
 Carnegie Mellon University). Gaussian is a federally registered
 trademark of Gaussian, Inc.
  
 This software contains proprietary and confidential information,
 including trade secrets, belonging to Gaussian, Inc.
  
 This software is provided under written license and may be
 used, copied, transmitted, or stored only in accord with that
 written license.
  
 The following legend is applicable only to US Government
 contracts under FAR:
  
                    RESTRICTED RIGHTS LEGEND
  
 Use, reproduction and disclosure by the US Government is
 subject to restrictions as set forth in subparagraphs (a)
 and (c) of the Commercial Computer Software - Restricted
 Rights clause in FAR 52.227-19.
  
 Gaussian, Inc.
 340 Quinnipiac St., Bldg. 40, Wallingford CT 06492
  
  
 ---------------------------------------------------------------
 Warning -- This program may not be used in any manner that
 competes with the business of Gaussian, Inc. or will provide
 assistance to any competitor of Gaussian, Inc.  The licensee
 of this program is prohibited from giving any competitor of
 Gaussian, Inc. access to this program.  By using this program,
 the user acknowledges that Gaussian, Inc. is engaged in the
 business of creating and licensing software in the field of
 computational chemistry and represents and warrants to the
 licensee that it is not a competitor of Gaussian, Inc. and that
 it will not use this program in any manner prohibited above.
 ---------------------------------------------------------------
  

 Cite this work as:
 Gaussian 09, Revision E.01,
 M. J. Frisch, G. W. Trucks, H. B. Schlegel, G. E. Scuseria, 
 M. A. Robb, J. R. Cheeseman, G. Scalmani, V. Barone, B. Mennucci, 
 G. A. Petersson, H. Nakatsuji, M. Caricato, X. Li, H. P. Hratchian, 
 A. F. Izmaylov, J. Bloino, G. Zheng, J. L. Sonnenberg, M. Hada, 
 M. Ehara, K. Toyota, R. Fukuda, J. Hasegawa, M. Ishida, T. Nakajima, 
 Y. Honda, O. Kitao, H. Nakai, T. Vreven, J. A. Montgomery, Jr., 
 J. E. Peralta, F. Ogliaro, M. Bearpark, J. J. Heyd, E. Brothers, 
 K. N. Kudin, V. N. Staroverov, T. Keith, R. Kobayashi, J. Normand, 
 K. Raghavachari, A. Rendell, J. C. Burant, S. S. Iyengar, J. Tomasi, 
 M. Cossi, N. Rega, J. M. Millam, M. Klene, J. E. Knox, J. B. Cross, 
 V. Bakken, C. Adamo, J. Jaramillo, R. Gomperts, R. E. Stratmann, 
 O. Yazyev, A. J. Austin, R. Cammi, C. Pomelli, J. W. Ochterski, 
 R. L. Martin, K. Morokuma, V. G. Zakrzewski, G. A. Voth, 
 P. Salvador, J. J. Dannenberg, S. Dapprich, A. D. Daniels, 
 O. Farkas, J. B. Foresman, J. V. Ortiz, J. Cioslowski, 
 and D. J. Fox, Gaussian, Inc., Wallingford CT, 2013.
 
 ******************************************
 Gaussian 09:  ES64L-G09RevE.01 30-Nov-2015
                22-Nov-2017 
 ******************************************
 %LindaWorkers=in-cn0111
 %NProcShared=24
 Will use up to   24 processors via shared memory.
 %Mem=59800mb
 %chk=20171117_ccpVTZ_BHandHlyp_hexaaquaFe.chk
 SetLPE:  input flags=" -workerwait 900 -opt "Tsnet.Node.lindarsharg: ssh " "
 SetLPE:    new flags=" -workerwait 900 -opt "Tsnet.Node.lindarsharg: ssh "  -nodelist 'in-cn0111'"
 Will use up to    1 processors via Linda.
 ------------------------------------
 # opt freq gen geom=connectivity m06
 ------------------------------------
 1/14=-1,18=20,19=15,26=3,38=1,57=2/1,3;
 2/9=110,12=2,17=6,18=5,40=1/2;
 3/5=7,11=2,16=1,25=1,30=1,71=1,74=-54/1,2,3;
 4//1;
 5/5=2,38=5/2;
 6/7=2,8=2,9=2,10=2,28=1/1;
 7//1,2,3,16;
 1/14=-1,18=20,19=15,26=3/3(2);
 2/9=110/2;
 99//99;
 2/9=110/2;
 3/5=7,6=1,11=2,16=1,25=1,30=1,71=1,74=-54,82=7/1,2,3;
 4/5=5,16=3,69=1/1;
 5/5=2,38=5/2;
 7//1,2,3,16;
 1/14=-1,18=20,19=15,26=3/3(-5);
 2/9=110/2;
 6/7=2,8=2,9=2,10=2,19=2,28=1/1;
 99/9=1/99;
 -----------------------
 HexaAquaFe(III) Lowspin
 -----------------------
 Symbolic Z-matrix:
 Charge =  3 Multiplicity = 6
 Fe                   -0.99174   0.41988  -0.119 
 O                    -1.23915   2.42924  -0.01893 
 H                    -2.08894   2.66626  -0.39744 
 O                     1.02245   0.60822  -0.12944 
 H                     1.42125  -0.20106   0.19862 
 O                    -0.96904   0.26375   1.89783 
 H                    -1.8095   -0.0873    2.20111 
 O                    -3.00585   0.2307   -0.10995 
 H                    -3.24552  -0.65321  -0.39778 
 O                    -0.7449   -1.58962  -0.21749 
 H                    -0.96076  -1.89559  -1.10142 
 O                    -1.01271   0.57668  -2.13581 
 H                    -0.57936   1.3922   -2.3979 
 H                    -1.9209    0.58261  -2.44689 
 H                    -1.32455  -2.01479   0.41875 
 H                    -1.2079    2.7102    0.8985 
 H                    -0.82624   1.13082   2.28432 
 H                    -3.33718   0.37868   0.77883 
 H                     1.3238    0.77294  -1.02592 
 
 Add virtual bond connecting atoms O4         and Fe1        Dist= 3.82D+00.
 Add virtual bond connecting atoms O8         and Fe1        Dist= 3.82D+00.
 Add virtual bond connecting atoms O12        and Fe1        Dist= 3.82D+00.
 Add virtual bond connecting atoms O6         and Fe1        Dist= 3.82D+00.
 Add virtual bond connecting atoms H7         and H18        Dist= 4.04D+00.
 Add virtual bond connecting atoms O10        and Fe1        Dist= 3.83D+00.
 Add virtual bond connecting atoms O2         and Fe1        Dist= 3.83D+00.
 Add virtual bond connecting atoms H16        and H17        Dist= 4.04D+00.

 GradGradGradGradGradGradGradGradGradGradGradGradGradGradGradGradGradGrad
 Berny optimization.
 Initialization pass.
                           ----------------------------
                           !    Initial Parameters    !
                           ! (Angstroms and Degrees)  !
 --------------------------                            --------------------------
 ! Name  Definition              Value          Derivative Info.                !
 --------------------------------------------------------------------------------
 ! R1    R(1,2)                  2.027          estimate D2E/DX2                !
 ! R2    R(1,4)                  2.023          estimate D2E/DX2                !
 ! R3    R(1,6)                  2.023          estimate D2E/DX2                !
 ! R4    R(1,8)                  2.023          estimate D2E/DX2                !
 ! R5    R(1,10)                 2.027          estimate D2E/DX2                !
 ! R6    R(1,12)                 2.023          estimate D2E/DX2                !
 ! R7    R(2,3)                  0.96           estimate D2E/DX2                !
 ! R8    R(2,16)                 0.96           estimate D2E/DX2                !
 ! R9    R(4,5)                  0.96           estimate D2E/DX2                !
 ! R10   R(4,19)                 0.96           estimate D2E/DX2                !
 ! R11   R(6,7)                  0.96           estimate D2E/DX2                !
 ! R12   R(6,17)                 0.96           estimate D2E/DX2                !
 ! R13   R(7,18)                 2.1387         estimate D2E/DX2                !
 ! R14   R(8,9)                  0.96           estimate D2E/DX2                !
 ! R15   R(8,18)                 0.96           estimate D2E/DX2                !
 ! R16   R(10,11)                0.96           estimate D2E/DX2                !
 ! R17   R(10,15)                0.96           estimate D2E/DX2                !
 ! R18   R(12,13)                0.96           estimate D2E/DX2                !
 ! R19   R(12,14)                0.96           estimate D2E/DX2                !
 ! R20   R(16,17)                2.1356         estimate D2E/DX2                !
 ! A1    A(2,1,4)               91.6899         estimate D2E/DX2                !
 ! A2    A(2,1,6)               91.6419         estimate D2E/DX2                !
 ! A3    A(2,1,8)               88.3359         estimate D2E/DX2                !
 ! A4    A(2,1,12)              88.3452         estimate D2E/DX2                !
 ! A5    A(4,1,6)               90.0662         estimate D2E/DX2                !
 ! A6    A(4,1,10)              88.3266         estimate D2E/DX2                !
 ! A7    A(4,1,12)              89.8833         estimate D2E/DX2                !
 ! A8    A(6,1,8)               89.971          estimate D2E/DX2                !
 ! A9    A(6,1,10)              88.3129         estimate D2E/DX2                !
 ! A10   A(8,1,10)              91.6477         estimate D2E/DX2                !
 ! A11   A(8,1,12)              90.0795         estimate D2E/DX2                !
 ! A12   A(10,1,12)             91.7            estimate D2E/DX2                !
 ! A13   A(1,2,3)              109.4709         estimate D2E/DX2                !
 ! A14   A(1,2,16)             109.4715         estimate D2E/DX2                !
 ! A15   A(3,2,16)             109.4723         estimate D2E/DX2                !
 ! A16   A(1,4,5)              109.4732         estimate D2E/DX2                !
 ! A17   A(1,4,19)             109.4709         estimate D2E/DX2                !
 ! A18   A(5,4,19)             109.4722         estimate D2E/DX2                !
 ! A19   A(1,6,7)              109.4725         estimate D2E/DX2                !
 ! A20   A(1,6,17)             109.4713         estimate D2E/DX2                !
 ! A21   A(7,6,17)             109.4708         estimate D2E/DX2                !
 ! A22   A(6,7,18)             109.6091         estimate D2E/DX2                !
 ! A23   A(1,8,9)              109.4704         estimate D2E/DX2                !
 ! A24   A(1,8,18)             109.4721         estimate D2E/DX2                !
 ! A25   A(9,8,18)             109.4719         estimate D2E/DX2                !
 ! A26   A(1,10,11)            109.4712         estimate D2E/DX2                !
 ! A27   A(1,10,15)            109.4713         estimate D2E/DX2                !
 ! A28   A(11,10,15)           109.4708         estimate D2E/DX2                !
 ! A29   A(1,12,13)            109.4722         estimate D2E/DX2                !
 ! A30   A(1,12,14)            109.4713         estimate D2E/DX2                !
 ! A31   A(13,12,14)           109.4716         estimate D2E/DX2                !
 ! A32   A(2,16,17)            114.1746         estimate D2E/DX2                !
 ! A33   A(6,17,16)            112.3422         estimate D2E/DX2                !
 ! A34   A(7,18,8)             109.6075         estimate D2E/DX2                !
 ! A35   L(2,1,10,4,-1)        180.0165         estimate D2E/DX2                !
 ! A36   L(4,1,8,2,-1)         180.0258         estimate D2E/DX2                !
 ! A37   L(6,1,12,2,-1)        179.9871         estimate D2E/DX2                !
 ! A38   L(2,1,10,4,-2)        179.9549         estimate D2E/DX2                !
 ! A39   L(4,1,8,2,-2)         179.962          estimate D2E/DX2                !
 ! A40   L(6,1,12,2,-2)        179.949          estimate D2E/DX2                !
 ! D1    D(4,1,2,3)            153.9266         estimate D2E/DX2                !
 ! D2    D(4,1,2,16)           -86.072          estimate D2E/DX2                !
 ! D3    D(6,1,2,3)           -115.9587         estimate D2E/DX2                !
 ! D4    D(6,1,2,16)             4.0427         estimate D2E/DX2                !
 ! D5    D(8,1,2,3)            -26.0354         estimate D2E/DX2                !
 ! D6    D(8,1,2,16)            93.9659         estimate D2E/DX2                !
 ! D7    D(12,1,2,3)            64.0923         estimate D2E/DX2                !
 ! D8    D(12,1,2,16)         -175.9064         estimate D2E/DX2                !
 ! D9    D(3,2,10,11)           48.0063         estimate D2E/DX2                !
 ! D10   D(3,2,10,15)          -71.9917         estimate D2E/DX2                !
 ! D11   D(16,2,10,11)         167.9958         estimate D2E/DX2                !
 ! D12   D(16,2,10,15)          47.9978         estimate D2E/DX2                !
 ! D13   D(2,1,4,5)            155.8137         estimate D2E/DX2                !
 ! D14   D(2,1,4,19)           -84.1842         estimate D2E/DX2                !
 ! D15   D(6,1,4,5)             64.1691         estimate D2E/DX2                !
 ! D16   D(6,1,4,19)          -175.8288         estimate D2E/DX2                !
 ! D17   D(10,1,4,5)           -24.1412         estimate D2E/DX2                !
 ! D18   D(10,1,4,19)           95.861          estimate D2E/DX2                !
 ! D19   D(12,1,4,5)          -115.8453         estimate D2E/DX2                !
 ! D20   D(12,1,4,19)            4.1569         estimate D2E/DX2                !
 ! D21   D(5,4,8,9)            -39.9995         estimate D2E/DX2                !
 ! D22   D(5,4,8,18)            80.0038         estimate D2E/DX2                !
 ! D23   D(19,4,8,9)            79.9895         estimate D2E/DX2                !
 ! D24   D(19,4,8,18)         -160.0072         estimate D2E/DX2                !
 ! D25   D(2,1,6,7)            104.1567         estimate D2E/DX2                !
 ! D26   D(2,1,6,17)           -15.8436         estimate D2E/DX2                !
 ! D27   D(4,1,6,7)           -164.1508         estimate D2E/DX2                !
 ! D28   D(4,1,6,17)            75.8489         estimate D2E/DX2                !
 ! D29   D(8,1,6,7)             15.8223         estimate D2E/DX2                !
 ! D30   D(8,1,6,17)          -104.1779         estimate D2E/DX2                !
 ! D31   D(10,1,6,7)           -75.8269         estimate D2E/DX2                !
 ! D32   D(10,1,6,17)          164.1728         estimate D2E/DX2                !
 ! D33   D(7,6,12,13)          140.0067         estimate D2E/DX2                !
 ! D34   D(7,6,12,14)           20.0028         estimate D2E/DX2                !
 ! D35   D(17,6,12,13)          19.9984         estimate D2E/DX2                !
 ! D36   D(17,6,12,14)        -100.0055         estimate D2E/DX2                !
 ! D37   D(2,1,8,9)            164.1852         estimate D2E/DX2                !
 ! D38   D(2,1,8,18)           -75.814          estimate D2E/DX2                !
 ! D39   D(6,1,8,9)           -104.1714         estimate D2E/DX2                !
 ! D40   D(6,1,8,18)            15.8295         estimate D2E/DX2                !
 ! D41   D(10,1,8,9)           -15.86           estimate D2E/DX2                !
 ! D42   D(10,1,8,18)          104.1409         estimate D2E/DX2                !
 ! D43   D(12,1,8,9)            75.843          estimate D2E/DX2                !
 ! D44   D(12,1,8,18)         -164.1562         estimate D2E/DX2                !
 ! D45   D(4,1,10,11)         -105.9224         estimate D2E/DX2                !
 ! D46   D(4,1,10,15)          134.078          estimate D2E/DX2                !
 ! D47   D(6,1,10,11)          163.962          estimate D2E/DX2                !
 ! D48   D(6,1,10,15)           43.9625         estimate D2E/DX2                !
 ! D49   D(8,1,10,11)           74.0396         estimate D2E/DX2                !
 ! D50   D(8,1,10,15)          -45.96           estimate D2E/DX2                !
 ! D51   D(12,1,10,11)         -16.089          estimate D2E/DX2                !
 ! D52   D(12,1,10,15)        -136.0885         estimate D2E/DX2                !
 ! D53   D(2,1,12,13)           35.8455         estimate D2E/DX2                !
 ! D54   D(2,1,12,14)          -84.1556         estimate D2E/DX2                !
 ! D55   D(4,1,12,13)          -55.8485         estimate D2E/DX2                !
 ! D56   D(4,1,12,14)         -175.8496         estimate D2E/DX2                !
 ! D57   D(8,1,12,13)          124.1784         estimate D2E/DX2                !
 ! D58   D(8,1,12,14)            4.1773         estimate D2E/DX2                !
 ! D59   D(10,1,12,13)        -144.1708         estimate D2E/DX2                !
 ! D60   D(10,1,12,14)          95.8281         estimate D2E/DX2                !
 ! D61   D(1,2,16,17)            2.342          estimate D2E/DX2                !
 ! D62   D(3,2,16,17)          122.3424         estimate D2E/DX2                !
 ! D63   D(1,6,7,18)           -25.7817         estimate D2E/DX2                !
 ! D64   D(17,6,7,18)           94.2189         estimate D2E/DX2                !
 ! D65   D(1,6,17,16)           17.2631         estimate D2E/DX2                !
 ! D66   D(7,6,17,16)         -102.7382         estimate D2E/DX2                !
 ! D67   D(6,7,18,8)            42.8195         estimate D2E/DX2                !
 ! D68   D(1,8,18,7)           -25.7868         estimate D2E/DX2                !
 ! D69   D(9,8,18,7)            94.2132         estimate D2E/DX2                !
 ! D70   D(2,16,17,6)          -16.3696         estimate D2E/DX2                !
 --------------------------------------------------------------------------------
 Trust Radius=3.00D-01 FncErr=1.00D-07 GrdErr=1.00D-06
 Number of steps in this run=    114 maximum allowed number of steps=    114.
 GradGradGradGradGradGradGradGradGradGradGradGradGradGradGradGradGradGrad

                          Input orientation:                          
 ---------------------------------------------------------------------
 Center     Atomic      Atomic             Coordinates (Angstroms)
 Number     Number       Type             X           Y           Z
 ---------------------------------------------------------------------
      1         26           0       -0.991740    0.419883   -0.119005
      2          8           0       -1.239146    2.429237   -0.018926
      3          1           0       -2.088940    2.666261   -0.397438
      4          8           0        1.022447    0.608222   -0.129441
      5          1           0        1.421252   -0.201059    0.198616
      6          8           0       -0.969038    0.263752    1.897834
      7          1           0       -1.809501   -0.087301    2.201115
      8          8           0       -3.005854    0.230704   -0.109952
      9          1           0       -3.245523   -0.653212   -0.397785
     10          8           0       -0.744896   -1.589619   -0.217487
     11          1           0       -0.960756   -1.895593   -1.101424
     12          8           0       -1.012711    0.576683   -2.135810
     13          1           0       -0.579356    1.392200   -2.397903
     14          1           0       -1.920896    0.582611   -2.446890
     15          1           0       -1.324552   -2.014787    0.418754
     16          1           0       -1.207898    2.710203    0.898497
     17          1           0       -0.826240    1.130823    2.284324
     18          1           0       -3.337185    0.378682    0.778826
     19          1           0        1.323798    0.772938   -1.025920
 ---------------------------------------------------------------------
                    Distance matrix (angstroms):
                    1          2          3          4          5
     1  Fe   0.000000
     2  O    2.027000   0.000000
     3  H    2.515470   0.960001   0.000000
     4  O    2.023000   2.905704   3.740064   0.000000
     5  H    2.511768   3.747466   4.571461   0.960001   0.000000
     6  O    2.023000   2.904522   3.506352   2.862606   2.969322
     7  H    2.511757   3.403946   3.796402   3.732984   3.802723
     8  O    2.023000   2.821895   2.618266   4.046000   4.458800
     9  H    2.511731   3.697374   3.515193   4.458564   4.726407
    10  O    2.027000   4.054000   4.466694   2.821659   2.606422
    11  H    2.515460   4.466929   4.751727   3.338703   3.199298
    12  O    2.023000   2.822132   2.923447   2.858038   3.461011
    13  H    2.511740   2.677741   2.811394   2.885535   3.644560
    14  H    2.511745   3.125671   2.927471   3.746264   4.333912
    15  H    2.515465   4.466341   4.812761   3.562176   3.298107
    16  H    2.515472   0.959991   1.567678   3.232557   3.984685
    17  H    2.511736   2.676066   3.338238   3.084967   3.342949
    18  H    2.511754   3.040222   2.859148   4.459151   4.828608
    19  H    2.511744   3.213416   3.953030   0.960010   1.567691
                    6          7          8          9         10
     6  O    0.000000
     7  H    0.959998   0.000000
     8  O    2.860230   2.621720   0.000000
     9  H    3.360517   3.022697   0.959998   0.000000
    10  O    2.821313   3.039733   2.904664   2.676285   0.000000
    11  H    3.695726   3.859670   3.112328   2.694213   0.959980
    12  O    4.046000   4.459222   2.862939   3.085259   2.905951
    13  H    4.458542   4.985293   3.531528   3.910579   3.697684
    14  H    4.459185   4.697355   2.600434   2.735092   3.327431
    15  H    2.739673   2.669679   2.854564   2.492138   0.959985
    16  H    2.653460   3.144005   3.224521   4.140631   4.466348
    17  H    0.959989   1.567658   3.360579   4.028575   3.696820
    18  H    2.621737   2.138659   0.960002   1.567680   3.403940
    19  H    3.750294   4.579446   4.458576   4.827748   3.242644
                   11         12         13         14         15
    11  H    0.000000
    12  O    2.680448   0.000000
    13  H    3.554703   0.959978   0.000000
    14  H    2.978866   0.960003   1.567662   0.000000
    15  H    1.567640   3.652226   4.482905   3.913313   0.000000
    16  H    5.027338   3.714435   3.605336   4.028229   4.750715
    17  H    4.543191   4.458635   4.696011   4.887044   3.691006
    18  H    3.788810   3.733294   4.327175   3.528839   3.147862
    19  H    3.513680   2.594156   2.426482   3.547311   4.107585
                   16         17         18         19
    16  H    0.000000
    17  H    2.135561   0.000000
    18  H    3.159774   3.022761   0.000000
    19  H    3.723689   3.963390   5.013712   0.000000
 Stoichiometry    FeH12O6(3+,6)
 Framework group  C1[X(FeH12O6)]
 Deg. of freedom    51
 Full point group                 C1      NOp   1
 Largest Abelian subgroup         C1      NOp   1
 Largest concise Abelian subgroup C1      NOp   1
                         Standard orientation:                         
 ---------------------------------------------------------------------
 Center     Atomic      Atomic             Coordinates (Angstroms)
 Number     Number       Type             X           Y           Z
 ---------------------------------------------------------------------
      1         26           0       -0.024522   -0.007239   -0.018106
      2          8           0        0.153074    1.820870   -0.875547
      3          1           0        0.434456    2.458153   -0.215018
      4          8           0       -1.387835   -0.587071   -1.395677
      5          1           0       -1.386648   -1.544653   -1.463771
      6          8           0        1.460829   -0.755870   -1.169545
      7          1           0        2.259852   -0.842770   -0.644561
      8          8           0        1.337742    0.572241    1.360650
      9          1           0        1.312341   -0.029547    2.108180
     10          8           0       -0.200552   -1.835746    0.838809
     11          1           0       -0.701938   -1.760195    1.653956
     12          8           0       -1.511029    0.741328    1.131883
     13          1           0       -2.021126    1.375433    0.622698
     14          1           0       -1.133333    1.177030    1.899421
     15          1           0        0.672931   -2.184250    1.031536
     16          1           0        0.803781    1.781931   -1.580280
     17          1           0        1.624834   -0.162384   -1.906060
     18          1           0        2.214303    0.559715    0.969385
     19          1           0       -2.259729   -0.286263   -1.129344
 ---------------------------------------------------------------------
 Rotational constants (GHZ):      1.6321448      1.6314821      1.5802791
 General basis read from cards:  (5D, 7F)
 QPErr --- A syntax error was detected in the input line.
 
 '
 Last state= "Top"
 TCursr=      2832 LCursr=         0
 Error reading general basis specification.
 Error termination via Lnk1e in /panfs/roc/msisoft/gaussian/g09.e01_mesabi/g09/l301.exe at Wed Nov 22 04:36:30 2017.
 Job cpu time:       0 days  0 hours  0 minutes 20.1 seconds.
 File lengths (MBytes):  RWF=      5 Int=      0 D2E=      0 Chk=      1 Scr=      1
19.85user 0.29system 0:00.96elapsed 2081%CPU (0avgtext+0avgdata 953732maxresident)k
0inputs+7784outputs (0major+5590minor)pagefaults 0swaps
