'nid03928 nid03929'
 Entering Gaussian System, Link 0=g09
 Initial command:
 /usr/common/software/g09/d1/g09/l1.exe "/global/cscratch1/sd/dgraham/Gau-20179.inp" -scrdir="/global/cscratch1/sd/dgraham/"
 Entering Link 1 = /usr/common/software/g09/d1/g09/l1.exe PID=     20181.
  
 Copyright (c) 1988,1990,1992,1993,1995,1998,2003,2009,2013,
            Gaussian, Inc.  All Rights Reserved.
  
 This is part of the Gaussian(R) 09 program.  It is based on
 the Gaussian(R) 03 system (copyright 2003, Gaussian, Inc.),
 the Gaussian(R) 98 system (copyright 1998, Gaussian, Inc.),
 the Gaussian(R) 94 system (copyright 1995, Gaussian, Inc.),
 the Gaussian 92(TM) system (copyright 1992, Gaussian, Inc.),
 the Gaussian 90(TM) system (copyright 1990, Gaussian, Inc.),
 the Gaussian 88(TM) system (copyright 1988, Gaussian, Inc.),
 the Gaussian 86(TM) system (copyright 1986, Carnegie Mellon
 University), and the Gaussian 82(TM) system (copyright 1983,
 Carnegie Mellon University). Gaussian is a federally registered
 trademark of Gaussian, Inc.
  
 This software contains proprietary and confidential information,
 including trade secrets, belonging to Gaussian, Inc.
  
 This software is provided under written license and may be
 used, copied, transmitted, or stored only in accord with that
 written license.
  
 The following legend is applicable only to US Government
 contracts under FAR:
  
                    RESTRICTED RIGHTS LEGEND
  
 Use, reproduction and disclosure by the US Government is
 subject to restrictions as set forth in subparagraphs (a)
 and (c) of the Commercial Computer Software - Restricted
 Rights clause in FAR 52.227-19.
  
 Gaussian, Inc.
 340 Quinnipiac St., Bldg. 40, Wallingford CT 06492
  
  
 ---------------------------------------------------------------
 Warning -- This program may not be used in any manner that
 competes with the business of Gaussian, Inc. or will provide
 assistance to any competitor of Gaussian, Inc.  The licensee
 of this program is prohibited from giving any competitor of
 Gaussian, Inc. access to this program.  By using this program,
 the user acknowledges that Gaussian, Inc. is engaged in the
 business of creating and licensing software in the field of
 computational chemistry and represents and warrants to the
 licensee that it is not a competitor of Gaussian, Inc. and that
 it will not use this program in any manner prohibited above.
 ---------------------------------------------------------------
  

 Cite this work as:
 Gaussian 09, Revision D.01,
 M. J. Frisch, G. W. Trucks, H. B. Schlegel, G. E. Scuseria, 
 M. A. Robb, J. R. Cheeseman, G. Scalmani, V. Barone, B. Mennucci, 
 G. A. Petersson, H. Nakatsuji, M. Caricato, X. Li, H. P. Hratchian, 
 A. F. Izmaylov, J. Bloino, G. Zheng, J. L. Sonnenberg, M. Hada, 
 M. Ehara, K. Toyota, R. Fukuda, J. Hasegawa, M. Ishida, T. Nakajima, 
 Y. Honda, O. Kitao, H. Nakai, T. Vreven, J. A. Montgomery, Jr., 
 J. E. Peralta, F. Ogliaro, M. Bearpark, J. J. Heyd, E. Brothers, 
 K. N. Kudin, V. N. Staroverov, T. Keith, R. Kobayashi, J. Normand, 
 K. Raghavachari, A. Rendell, J. C. Burant, S. S. Iyengar, J. Tomasi, 
 M. Cossi, N. Rega, J. M. Millam, M. Klene, J. E. Knox, J. B. Cross, 
 V. Bakken, C. Adamo, J. Jaramillo, R. Gomperts, R. E. Stratmann, 
 O. Yazyev, A. J. Austin, R. Cammi, C. Pomelli, J. W. Ochterski, 
 R. L. Martin, K. Morokuma, V. G. Zakrzewski, G. A. Voth, 
 P. Salvador, J. J. Dannenberg, S. Dapprich, A. D. Daniels, 
 O. Farkas, J. B. Foresman, J. V. Ortiz, J. Cioslowski, 
 and D. J. Fox, Gaussian, Inc., Wallingford CT, 2013.
 
 ******************************************
 Gaussian 09:  ES64L-G09RevD.01 24-Apr-2013
                 7-Feb-2018 
 ******************************************
 %mem=80gb
 %NProcShared=68
 Will use up to   68 processors via shared memory.
 %NProcLinda=2
 Will use up to    2 processors via Linda.
 %chk=mof5.chk
 ----------------------------------------------------------------------
 # opt Integral(superfinegrid) pbepbe/def2svp geom=Checkpoint Guess=Rea
 d EmpiricalDispersion=GD3
 ----------------------------------------------------------------------
 1/14=-1,18=20,19=15,26=5,29=2,38=1/1,3;
 2/9=110,12=2,40=1/2;
 3/5=43,7=101,11=2,14=-4,16=1,25=1,30=1,71=1,74=1009,75=-7,116=-2,124=31/1,2,3;
 4/5=1/1;
 5/5=2,38=6/2;
 6/7=2,8=2,9=2,10=2,28=1/1;
 7//1,2,3,16;
 1/14=-1,18=20,19=15,26=5/3(2);
 2/9=110/2;
 99//99;
 2/9=110/2;
 3/5=43,7=101,11=2,14=-2,16=1,25=1,30=1,71=1,74=1009,75=-7,124=31/1,2,3;
 4/5=5,16=3,69=1/1;
 5/5=2,38=5/2;
 7//1,2,3,16;
 1/14=-1,18=20,19=15,26=5/3(-5);
 2/9=110/2;
 6/7=2,8=2,9=2,10=2,19=2,28=1/1;
 99/9=1/99;
 ------------------
 MOF-5 Optimization
 ------------------
 Structure from the checkpoint file:  "mof5.chk"
 Charge =  0 Multiplicity = 1
 Redundant internal coordinates found in file.
 Zn,0,5.3979877797,-7.6770575365,-7.6770575365
 Zn,0,-5.3979877797,7.6770575365,7.6770575365
 Zn,0,-5.3979877797,-7.6770575365,7.6770575365
 Zn,0,5.3979877797,7.6770575365,-7.6770575365
 Zn,0,-5.3979877797,7.6770575365,-7.6770575365
 Zn,0,5.3979877797,-7.6770575365,7.6770575365
 Zn,0,5.3979877797,7.6770575365,7.6770575365
 Zn,0,-5.3979877797,-7.6770575365,-7.6770575365
 Zn,0,7.6770575365,-7.6770575365,-5.3979877797
 Zn,0,-7.6770575365,7.6770575365,5.3979877797
 Zn,0,7.6770575365,7.6770575365,5.3979877797
 Zn,0,-7.6770575365,-7.6770575365,-5.3979877797
 Zn,0,-7.6770575365,-7.6770575365,5.3979877797
 Zn,0,7.6770575365,7.6770575365,-5.3979877797
 Zn,0,-7.6770575365,7.6770575365,-5.3979877797
 Zn,0,7.6770575365,-7.6770575365,5.3979877797
 Zn,0,7.6770575365,-5.3979877797,-7.6770575365
 Zn,0,-7.6770575365,5.3979877797,7.6770575365
 Zn,0,-7.6770575365,5.3979877797,-7.6770575365
 Zn,0,7.6770575365,-5.3979877797,7.6770575365
 Zn,0,7.6770575365,5.3979877797,7.6770575365
 Zn,0,-7.6770575365,-5.3979877797,-7.6770575365
 Zn,0,-7.6770575365,-5.3979877797,7.6770575365
 Zn,0,7.6770575365,5.3979877797,-7.6770575365
 Zn,0,5.3969538388,5.3969538388,5.3969538388
 Zn,0,-5.3969538388,-5.3969538388,-5.3969538388
 Zn,0,-5.3969538388,5.3969538388,-5.3969538388
 Zn,0,5.3969538388,-5.3969538388,5.3969538388
 Zn,0,-5.3969538388,-5.3969538388,5.3969538388
 Zn,0,5.3969538388,5.3969538388,-5.3969538388
 Zn,0,5.3969538388,-5.3969538388,-5.3969538388
 Zn,0,-5.3969538388,5.3969538388,5.3969538388
 O,0,6.5361836128,-6.5361836128,-6.5361836128
 O,0,-6.5361836128,6.5361836128,6.5361836128
 O,0,-6.5361836128,-6.5361836128,6.5361836128
 O,0,6.5361836128,6.5361836128,-6.5361836128
 O,0,-6.5361836128,6.5361836128,-6.5361836128
 O,0,6.5361836128,-6.5361836128,6.5361836128
 O,0,6.5361836128,6.5361836128,6.5361836128
 O,0,-6.5361836128,-6.5361836128,-6.5361836128
 O,0,5.7326007209,-9.585881065,-7.3379147823
 O,0,-5.7326007209,9.585881065,7.3379147823
 O,0,-5.7326007209,-9.585881065,7.3379147823
 O,0,5.7326007209,9.585881065,-7.3379147823
 O,0,-5.7326007209,9.585881065,-7.3379147823
 O,0,5.7326007209,-9.585881065,7.3379147823
 O,0,5.7326007209,9.585881065,7.3379147823
 O,0,-5.7326007209,-9.585881065,-7.3379147823
 O,0,9.585881065,-7.3379147823,-5.7326007209
 O,0,-9.585881065,7.3379147823,5.7326007209
 O,0,9.585881065,7.3379147823,5.7326007209
 O,0,-9.585881065,-7.3379147823,-5.7326007209
 O,0,-9.585881065,-7.3379147823,5.7326007209
 O,0,9.585881065,7.3379147823,-5.7326007209
 O,0,-9.585881065,7.3379147823,-5.7326007209
 O,0,9.585881065,-7.3379147823,5.7326007209
 O,0,7.3379147823,-5.7326007209,-9.585881065
 O,0,-7.3379147823,5.7326007209,9.585881065
 O,0,-7.3379147823,5.7326007209,-9.585881065
 O,0,7.3379147823,-5.7326007209,9.585881065
 O,0,7.3379147823,5.7326007209,9.585881065
 O,0,-7.3379147823,-5.7326007209,-9.585881065
 O,0,-7.3379147823,-5.7326007209,9.585881065
 O,0,7.3379147823,5.7326007209,-9.585881065
 O,0,7.3379147823,9.585881065,-5.7326007209
 O,0,-7.3379147823,-9.585881065,5.7326007209
 O,0,-7.3379147823,9.585881065,5.7326007209
 O,0,7.3379147823,-9.585881065,-5.7326007209
 O,0,7.3379147823,-9.585881065,5.7326007209
 O,0,-7.3379147823,9.585881065,-5.7326007209
 O,0,-7.3379147823,-9.585881065,-5.7326007209
 O,0,7.3379147823,9.585881065,5.7326007209
 O,0,5.7326007209,7.3379147823,-9.585881065
 O,0,-5.7326007209,-7.3379147823,9.585881065
 O,0,-5.7326007209,-7.3379147823,-9.585881065
 O,0,5.7326007209,7.3379147823,9.585881065
 O,0,-5.7326007209,7.3379147823,9.585881065
 O,0,5.7326007209,-7.3379147823,-9.585881065
 O,0,5.7326007209,-7.3379147823,9.585881065
 O,0,-5.7326007209,7.3379147823,-9.585881065
 O,0,9.585881065,5.7326007209,-7.3379147823
 O,0,-9.585881065,-5.7326007209,7.3379147823
 O,0,9.585881065,-5.7326007209,7.3379147823
 O,0,-9.585881065,5.7326007209,-7.3379147823
 O,0,-9.585881065,-5.7326007209,-7.3379147823
 O,0,9.585881065,5.7326007209,7.3379147823
 O,0,-9.585881065,5.7326007209,7.3379147823
 O,0,9.585881065,-5.7326007209,-7.3379147823
 O,0,5.7331584023,3.4862643346,5.7331584023
 O,0,-5.7331584023,-3.4862643346,-5.7331584023
 O,0,-5.7331584023,3.4862643346,-5.7331584023
 O,0,5.7331584023,-3.4862643346,5.7331584023
 O,0,-5.7331584023,-3.4862643346,5.7331584023
 O,0,5.7331584023,3.4862643346,-5.7331584023
 O,0,5.7331584023,-3.4862643346,-5.7331584023
 O,0,-5.7331584023,3.4862643346,5.7331584023
 O,0,7.3387133901,7.3387133901,3.4863488572
 O,0,-7.3387133901,-7.3387133901,-3.4863488572
 O,0,-7.3387133901,-7.3387133901,3.4863488572
 O,0,7.3387133901,7.3387133901,-3.4863488572
 O,0,7.3387133901,-7.3387133901,-3.4863488572
 O,0,-7.3387133901,7.3387133901,3.4863488572
 O,0,-7.3387133901,7.3387133901,-3.4863488572
 O,0,7.3387133901,-7.3387133901,3.4863488572
 O,0,7.3387133901,-3.4863488572,7.3387133901
 O,0,-7.3387133901,3.4863488572,-7.3387133901
 O,0,-7.3387133901,-3.4863488572,-7.3387133901
 O,0,7.3387133901,3.4863488572,7.3387133901
 O,0,7.3387133901,3.4863488572,-7.3387133901
 O,0,-7.3387133901,-3.4863488572,7.3387133901
 O,0,-7.3387133901,3.4863488572,7.3387133901
 O,0,7.3387133901,-3.4863488572,-7.3387133901
 O,0,5.7331584023,-5.7331584023,3.4862643346
 O,0,-5.7331584023,5.7331584023,-3.4862643346
 O,0,-5.7331584023,5.7331584023,3.4862643346
 O,0,5.7331584023,-5.7331584023,-3.4862643346
 O,0,-5.7331584023,-5.7331584023,-3.4862643346
 O,0,5.7331584023,5.7331584023,3.4862643346
 O,0,5.7331584023,5.7331584023,-3.4862643346
 O,0,-5.7331584023,-5.7331584023,3.4862643346
 O,0,-3.4862643346,5.7331584023,-5.7331584023
 O,0,3.4862643346,-5.7331584023,5.7331584023
 O,0,-3.4862643346,-5.7331584023,5.7331584023
 O,0,3.4862643346,5.7331584023,-5.7331584023
 O,0,3.4862643346,5.7331584023,5.7331584023
 O,0,-3.4862643346,-5.7331584023,-5.7331584023
 O,0,3.4862643346,-5.7331584023,-5.7331584023
 O,0,-3.4862643346,5.7331584023,5.7331584023
 O,0,-3.4863488572,-7.3387133901,-7.3387133901
 O,0,3.4863488572,7.3387133901,7.3387133901
 O,0,-3.4863488572,7.3387133901,7.3387133901
 O,0,3.4863488572,-7.3387133901,-7.3387133901
 O,0,3.4863488572,7.3387133901,-7.3387133901
 O,0,-3.4863488572,-7.3387133901,7.3387133901
 O,0,3.4863488572,-7.3387133901,7.3387133901
 O,0,-3.4863488572,7.3387133901,-7.3387133901
 C,0,6.5344774435,-10.1657538819,-6.5344774435
 C,0,-6.5344774435,10.1657538819,6.5344774435
 C,0,-6.5344774435,-10.1657538819,6.5344774435
 C,0,6.5344774435,10.1657538819,-6.5344774435
 C,0,-6.5344774435,10.1657538819,-6.5344774435
 C,0,6.5344774435,-10.1657538819,6.5344774435
 C,0,6.5344774435,10.1657538819,6.5344774435
 C,0,-6.5344774435,-10.1657538819,-6.5344774435
 C,0,10.1657538819,-6.5344774435,-6.5344774435
 C,0,-10.1657538819,6.5344774435,6.5344774435
 C,0,10.1657538819,6.5344774435,6.5344774435
 C,0,-10.1657538819,-6.5344774435,-6.5344774435
 C,0,-10.1657538819,-6.5344774435,6.5344774435
 C,0,10.1657538819,6.5344774435,-6.5344774435
 C,0,-10.1657538819,6.5344774435,-6.5344774435
 C,0,10.1657538819,-6.5344774435,6.5344774435
 C,0,6.5344774435,-6.5344774435,-10.1657538819
 C,0,-6.5344774435,6.5344774435,10.1657538819
 C,0,-6.5344774435,6.5344774435,-10.1657538819
 C,0,6.5344774435,-6.5344774435,10.1657538819
 C,0,6.5344774435,6.5344774435,10.1657538819
 C,0,-6.5344774435,-6.5344774435,-10.1657538819
 C,0,-6.5344774435,-6.5344774435,10.1657538819
 C,0,6.5344774435,6.5344774435,-10.1657538819
 C,0,6.5360736037,2.908665381,6.5360736037
 C,0,-6.5360736037,-2.908665381,-6.5360736037
 C,0,-6.5360736037,2.908665381,-6.5360736037
 C,0,6.5360736037,-2.908665381,6.5360736037
 C,0,-6.5360736037,-2.908665381,6.5360736037
 C,0,6.5360736037,2.908665381,-6.5360736037
 C,0,6.5360736037,-2.908665381,-6.5360736037
 C,0,-6.5360736037,2.908665381,6.5360736037
 C,0,6.5360736037,6.5360736037,2.908665381
 C,0,-6.5360736037,-6.5360736037,-2.908665381
 C,0,-6.5360736037,-6.5360736037,2.908665381
 C,0,6.5360736037,6.5360736037,-2.908665381
 C,0,6.5360736037,-6.5360736037,-2.908665381
 C,0,-6.5360736037,6.5360736037,2.908665381
 C,0,-6.5360736037,6.5360736037,-2.908665381
 C,0,6.5360736037,-6.5360736037,2.908665381
 C,0,-2.908665381,6.5360736037,-6.5360736037
 C,0,2.908665381,-6.5360736037,6.5360736037
 C,0,-2.908665381,-6.5360736037,6.5360736037
 C,0,2.908665381,6.5360736037,-6.5360736037
 C,0,2.908665381,6.5360736037,6.5360736037
 C,0,-2.908665381,-6.5360736037,-6.5360736037
 C,0,2.908665381,-6.5360736037,-6.5360736037
 C,0,-2.908665381,6.5360736037,6.5360736037
 C,0,5.6688989388,-12.3736305354,-7.3935004521
 C,0,-5.6688989388,12.3736305354,7.3935004521
 C,0,-5.6688989388,-12.3736305354,7.3935004521
 C,0,5.6688989388,12.3736305354,-7.3935004521
 C,0,-5.6688989388,12.3736305354,-7.3935004521
 C,0,5.6688989388,-12.3736305354,7.3935004521
 C,0,5.6688989388,12.3736305354,7.3935004521
 C,0,-5.6688989388,-12.3736305354,-7.3935004521
 C,0,12.3736305354,-7.3935004521,-5.6688989388
 C,0,-12.3736305354,7.3935004521,5.6688989388
 C,0,12.3736305354,7.3935004521,5.6688989388
 C,0,-12.3736305354,-7.3935004521,-5.6688989388
 C,0,-12.3736305354,-7.3935004521,5.6688989388
 C,0,12.3736305354,7.3935004521,-5.6688989388
 C,0,-12.3736305354,7.3935004521,-5.6688989388
 C,0,12.3736305354,-7.3935004521,5.6688989388
 C,0,7.3935004521,-5.6688989388,-12.3736305354
 C,0,-7.3935004521,5.6688989388,12.3736305354
 C,0,-7.3935004521,5.6688989388,-12.3736305354
 C,0,7.3935004521,-5.6688989388,12.3736305354
 C,0,7.3935004521,5.6688989388,12.3736305354
 C,0,-7.3935004521,-5.6688989388,-12.3736305354
 C,0,-7.3935004521,-5.6688989388,12.3736305354
 C,0,7.3935004521,5.6688989388,-12.3736305354
 C,0,7.3935004521,12.3736305354,-5.6688989388
 C,0,-7.3935004521,-12.3736305354,5.6688989388
 C,0,-7.3935004521,12.3736305354,5.6688989388
 C,0,7.3935004521,-12.3736305354,-5.6688989388
 C,0,7.3935004521,-12.3736305354,5.6688989388
 C,0,-7.3935004521,12.3736305354,-5.6688989388
 C,0,-7.3935004521,-12.3736305354,-5.6688989388
 C,0,7.3935004521,12.3736305354,5.6688989388
 C,0,5.6688989388,7.3935004521,-12.3736305354
 C,0,-5.6688989388,-7.3935004521,12.3736305354
 C,0,-5.6688989388,-7.3935004521,-12.3736305354
 C,0,5.6688989388,7.3935004521,12.3736305354
 C,0,-5.6688989388,7.3935004521,12.3736305354
 C,0,5.6688989388,-7.3935004521,-12.3736305354
 C,0,5.6688989388,-7.3935004521,12.3736305354
 C,0,-5.6688989388,7.3935004521,-12.3736305354
 C,0,12.3736305354,5.6688989388,-7.3935004521
 C,0,-12.3736305354,-5.6688989388,7.3935004521
 C,0,12.3736305354,-5.6688989388,7.3935004521
 C,0,-12.3736305354,5.6688989388,-7.3935004521
 C,0,-12.3736305354,-5.6688989388,-7.3935004521
 C,0,12.3736305354,5.6688989388,7.3935004521
 C,0,-12.3736305354,5.6688989388,7.3935004521
 C,0,12.3736305354,-5.6688989388,-7.3935004521
 C,0,5.6731855376,0.699013155,5.6731855376
 C,0,-5.6731855376,-0.699013155,-5.6731855376
 C,0,-5.6731855376,0.699013155,-5.6731855376
 C,0,5.6731855376,-0.699013155,5.6731855376
 C,0,-5.6731855376,-0.699013155,5.6731855376
 C,0,5.6731855376,0.699013155,-5.6731855376
 C,0,5.6731855376,-0.699013155,-5.6731855376
 C,0,-5.6731855376,0.699013155,5.6731855376
 C,0,7.3985473546,7.3985473546,0.69897846
 C,0,-7.3985473546,-7.3985473546,-0.69897846
 C,0,-7.3985473546,-7.3985473546,0.69897846
 C,0,7.3985473546,7.3985473546,-0.69897846
 C,0,7.3985473546,-7.3985473546,-0.69897846
 C,0,-7.3985473546,7.3985473546,0.69897846
 C,0,-7.3985473546,7.3985473546,-0.69897846
 C,0,7.3985473546,-7.3985473546,0.69897846
 C,0,7.3985473546,-0.69897846,7.3985473546
 C,0,-7.3985473546,0.69897846,-7.3985473546
 C,0,-7.3985473546,-0.69897846,-7.3985473546
 C,0,7.3985473546,0.69897846,7.3985473546
 C,0,7.3985473546,0.69897846,-7.3985473546
 C,0,-7.3985473546,-0.69897846,7.3985473546
 C,0,-7.3985473546,0.69897846,7.3985473546
 C,0,7.3985473546,-0.69897846,-7.3985473546
 C,0,5.6731855376,-5.6731855376,0.699013155
 C,0,-5.6731855376,5.6731855376,-0.699013155
 C,0,-5.6731855376,5.6731855376,0.699013155
 C,0,5.6731855376,-5.6731855376,-0.699013155
 C,0,-5.6731855376,-5.6731855376,-0.699013155
 C,0,5.6731855376,5.6731855376,0.699013155
 C,0,5.6731855376,5.6731855376,-0.699013155
 C,0,-5.6731855376,-5.6731855376,0.699013155
 C,0,-0.699013155,5.6731855376,-5.6731855376
 C,0,0.699013155,-5.6731855376,5.6731855376
 C,0,-0.699013155,-5.6731855376,5.6731855376
 C,0,0.699013155,5.6731855376,-5.6731855376
 C,0,0.699013155,5.6731855376,5.6731855376
 C,0,-0.699013155,-5.6731855376,-5.6731855376
 C,0,0.699013155,-5.6731855376,-5.6731855376
 C,0,-0.699013155,5.6731855376,5.6731855376
 C,0,-0.69897846,-7.3985473546,-7.3985473546
 C,0,0.69897846,7.3985473546,7.3985473546
 C,0,-0.69897846,7.3985473546,7.3985473546
 C,0,0.69897846,-7.3985473546,-7.3985473546
 C,0,0.69897846,7.3985473546,-7.3985473546
 C,0,-0.69897846,-7.3985473546,7.3985473546
 C,0,0.69897846,-7.3985473546,7.3985473546
 C,0,-0.69897846,7.3985473546,-7.3985473546
 C,0,6.5324681969,-11.6657017689,-6.5324681969
 C,0,-6.5324681969,11.6657017689,6.5324681969
 C,0,-6.5324681969,-11.6657017689,6.5324681969
 C,0,6.5324681969,11.6657017689,-6.5324681969
 C,0,-6.5324681969,11.6657017689,-6.5324681969
 C,0,6.5324681969,-11.6657017689,6.5324681969
 C,0,6.5324681969,11.6657017689,6.5324681969
 C,0,-6.5324681969,-11.6657017689,-6.5324681969
 C,0,11.6657017689,-6.5324681969,-6.5324681969
 C,0,-11.6657017689,6.5324681969,6.5324681969
 C,0,11.6657017689,6.5324681969,6.5324681969
 C,0,-11.6657017689,-6.5324681969,-6.5324681969
 C,0,-11.6657017689,-6.5324681969,6.5324681969
 C,0,11.6657017689,6.5324681969,-6.5324681969
 C,0,-11.6657017689,6.5324681969,-6.5324681969
 C,0,11.6657017689,-6.5324681969,6.5324681969
 C,0,6.5324681969,-6.5324681969,-11.6657017689
 C,0,-6.5324681969,6.5324681969,11.6657017689
 C,0,-6.5324681969,6.5324681969,-11.6657017689
 C,0,6.5324681969,-6.5324681969,11.6657017689
 C,0,6.5324681969,6.5324681969,11.6657017689
 C,0,-6.5324681969,-6.5324681969,-11.6657017689
 C,0,-6.5324681969,-6.5324681969,11.6657017689
 C,0,6.5324681969,6.5324681969,-11.6657017689
 C,0,6.5358615597,1.4067142556,6.5358615597
 C,0,-6.5358615597,-1.4067142556,-6.5358615597
 C,0,-6.5358615597,1.4067142556,-6.5358615597
 C,0,6.5358615597,-1.4067142556,6.5358615597
 C,0,-6.5358615597,-1.4067142556,6.5358615597
 C,0,6.5358615597,1.4067142556,-6.5358615597
 C,0,6.5358615597,-1.4067142556,-6.5358615597
 C,0,-6.5358615597,1.4067142556,6.5358615597
 C,0,6.5358615597,6.5358615597,1.4067142556
 C,0,-6.5358615597,-6.5358615597,-1.4067142556
 C,0,-6.5358615597,-6.5358615597,1.4067142556
 C,0,6.5358615597,6.5358615597,-1.4067142556
 C,0,6.5358615597,-6.5358615597,-1.4067142556
 C,0,-6.5358615597,6.5358615597,1.4067142556
 C,0,-6.5358615597,6.5358615597,-1.4067142556
 C,0,6.5358615597,-6.5358615597,1.4067142556
 C,0,-1.4067142556,6.5358615597,-6.5358615597
 C,0,1.4067142556,-6.5358615597,6.5358615597
 C,0,-1.4067142556,-6.5358615597,6.5358615597
 C,0,1.4067142556,6.5358615597,-6.5358615597
 C,0,1.4067142556,6.5358615597,6.5358615597
 C,0,-1.4067142556,-6.5358615597,-6.5358615597
 C,0,1.4067142556,-6.5358615597,-6.5358615597
 C,0,-1.4067142556,6.5358615597,6.5358615597
 H,0,5.0052850101,-11.8026597612,-8.0586031059
 H,0,-5.0052850101,11.8026597612,8.0586031059
 H,0,-5.0052850101,-11.8026597612,8.0586031059
 H,0,5.0052850101,11.8026597612,-8.0586031059
 H,0,-5.0052850101,11.8026597612,-8.0586031059
 H,0,5.0052850101,-11.8026597612,8.0586031059
 H,0,5.0052850101,11.8026597612,8.0586031059
 H,0,-5.0052850101,-11.8026597612,-8.0586031059
 H,0,11.8026597612,-8.0586031059,-5.0052850101
 H,0,-11.8026597612,8.0586031059,5.0052850101
 H,0,11.8026597612,8.0586031059,5.0052850101
 H,0,-11.8026597612,-8.0586031059,-5.0052850101
 H,0,-11.8026597612,-8.0586031059,5.0052850101
 H,0,11.8026597612,8.0586031059,-5.0052850101
 H,0,-11.8026597612,8.0586031059,-5.0052850101
 H,0,11.8026597612,-8.0586031059,5.0052850101
 H,0,8.0586031059,-5.0052850101,-11.8026597612
 H,0,-8.0586031059,5.0052850101,11.8026597612
 H,0,-8.0586031059,5.0052850101,-11.8026597612
 H,0,8.0586031059,-5.0052850101,11.8026597612
 H,0,8.0586031059,5.0052850101,11.8026597612
 H,0,-8.0586031059,-5.0052850101,-11.8026597612
 H,0,-8.0586031059,-5.0052850101,11.8026597612
 H,0,8.0586031059,5.0052850101,-11.8026597612
 H,0,8.0586031059,11.8026597612,-5.0052850101
 H,0,-8.0586031059,-11.8026597612,5.0052850101
 H,0,-8.0586031059,11.8026597612,5.0052850101
 H,0,8.0586031059,-11.8026597612,-5.0052850101
 H,0,8.0586031059,-11.8026597612,5.0052850101
 H,0,-8.0586031059,11.8026597612,-5.0052850101
 H,0,-8.0586031059,-11.8026597612,-5.0052850101
 H,0,8.0586031059,11.8026597612,5.0052850101
 H,0,5.0052850101,8.0586031059,-11.8026597612
 H,0,-5.0052850101,-8.0586031059,11.8026597612
 H,0,-5.0052850101,-8.0586031059,-11.8026597612
 H,0,5.0052850101,8.0586031059,11.8026597612
 H,0,-5.0052850101,8.0586031059,11.8026597612
 H,0,5.0052850101,-8.0586031059,-11.8026597612
 H,0,5.0052850101,-8.0586031059,11.8026597612
 H,0,-5.0052850101,8.0586031059,-11.8026597612
 H,0,11.8026597612,5.0052850101,-8.0586031059
 H,0,-11.8026597612,-5.0052850101,8.0586031059
 H,0,11.8026597612,-5.0052850101,8.0586031059
 H,0,-11.8026597612,5.0052850101,-8.0586031059
 H,0,-11.8026597612,-5.0052850101,-8.0586031059
 H,0,11.8026597612,5.0052850101,8.0586031059
 H,0,-11.8026597612,5.0052850101,8.0586031059
 H,0,11.8026597612,-5.0052850101,-8.0586031059
 H,0,5.0084583422,1.2687120245,5.0084583422
 H,0,-5.0084583422,-1.2687120245,-5.0084583422
 H,0,-5.0084583422,1.2687120245,-5.0084583422
 H,0,5.0084583422,-1.2687120245,5.0084583422
 H,0,-5.0084583422,-1.2687120245,5.0084583422
 H,0,5.0084583422,1.2687120245,-5.0084583422
 H,0,5.0084583422,-1.2687120245,-5.0084583422
 H,0,-5.0084583422,1.2687120245,5.0084583422
 H,0,8.0631390597,8.0631390597,1.2690129416
 H,0,-8.0631390597,-8.0631390597,-1.2690129416
 H,0,-8.0631390597,-8.0631390597,1.2690129416
 H,0,8.0631390597,8.0631390597,-1.2690129416
 H,0,8.0631390597,-8.0631390597,-1.2690129416
 H,0,-8.0631390597,8.0631390597,1.2690129416
 H,0,-8.0631390597,8.0631390597,-1.2690129416
 H,0,8.0631390597,-8.0631390597,1.2690129416
 H,0,8.0631390597,-1.2690129416,8.0631390597
 H,0,-8.0631390597,1.2690129416,-8.0631390597
 H,0,-8.0631390597,-1.2690129416,-8.0631390597
 H,0,8.0631390597,1.2690129416,8.0631390597
 H,0,8.0631390597,1.2690129416,-8.0631390597
 H,0,-8.0631390597,-1.2690129416,8.0631390597
 H,0,-8.0631390597,1.2690129416,8.0631390597
 H,0,8.0631390597,-1.2690129416,-8.0631390597
 H,0,5.0084583422,-5.0084583422,1.2687120245
 H,0,-5.0084583422,5.0084583422,-1.2687120245
 H,0,-5.0084583422,5.0084583422,1.2687120245
 H,0,5.0084583422,-5.0084583422,-1.2687120245
 H,0,-5.0084583422,-5.0084583422,-1.2687120245
 H,0,5.0084583422,5.0084583422,1.2687120245
 H,0,5.0084583422,5.0084583422,-1.2687120245
 H,0,-5.0084583422,-5.0084583422,1.2687120245
 H,0,-1.2687120245,5.0084583422,-5.0084583422
 H,0,1.2687120245,-5.0084583422,5.0084583422
 H,0,-1.2687120245,-5.0084583422,5.0084583422
 H,0,1.2687120245,5.0084583422,-5.0084583422
 H,0,1.2687120245,5.0084583422,5.0084583422
 H,0,-1.2687120245,-5.0084583422,-5.0084583422
 H,0,1.2687120245,-5.0084583422,-5.0084583422
 H,0,-1.2687120245,5.0084583422,5.0084583422
 H,0,-1.2690129416,-8.0631390597,-8.0631390597
 H,0,1.2690129416,8.0631390597,8.0631390597
 H,0,-1.2690129416,8.0631390597,8.0631390597
 H,0,1.2690129416,-8.0631390597,-8.0631390597
 H,0,1.2690129416,8.0631390597,-8.0631390597
 H,0,-1.2690129416,-8.0631390597,8.0631390597
 H,0,1.2690129416,-8.0631390597,8.0631390597
 H,0,-1.2690129416,8.0631390597,-8.0631390597
 C,0,5.6675831359,-13.7747344431,-7.3897877052
 C,0,-5.6675831359,13.7747344431,7.3897877052
 C,0,-5.6675831359,-13.7747344431,7.3897877052
 C,0,5.6675831359,13.7747344431,-7.3897877052
 C,0,-5.6675831359,13.7747344431,-7.3897877052
 C,0,5.6675831359,-13.7747344431,7.3897877052
 C,0,5.6675831359,13.7747344431,7.3897877052
 C,0,-5.6675831359,-13.7747344431,-7.3897877052
 C,0,13.7747344431,-7.3897877052,-5.6675831359
 C,0,-13.7747344431,7.3897877052,5.6675831359
 C,0,13.7747344431,7.3897877052,5.6675831359
 C,0,-13.7747344431,-7.3897877052,-5.6675831359
 C,0,-13.7747344431,-7.3897877052,5.6675831359
 C,0,13.7747344431,7.3897877052,-5.6675831359
 C,0,-13.7747344431,7.3897877052,-5.6675831359
 C,0,13.7747344431,-7.3897877052,5.6675831359
 C,0,7.3897877052,-5.6675831359,-13.7747344431
 C,0,-7.3897877052,5.6675831359,13.7747344431
 C,0,-7.3897877052,5.6675831359,-13.7747344431
 C,0,7.3897877052,-5.6675831359,13.7747344431
 C,0,7.3897877052,5.6675831359,13.7747344431
 C,0,-7.3897877052,-5.6675831359,-13.7747344431
 C,0,-7.3897877052,-5.6675831359,13.7747344431
 C,0,7.3897877052,5.6675831359,-13.7747344431
 C,0,7.3897877052,13.7747344431,-5.6675831359
 C,0,-7.3897877052,-13.7747344431,5.6675831359
 C,0,-7.3897877052,13.7747344431,5.6675831359
 C,0,7.3897877052,-13.7747344431,-5.6675831359
 C,0,7.3897877052,-13.7747344431,5.6675831359
 C,0,-7.3897877052,13.7747344431,-5.6675831359
 C,0,-7.3897877052,-13.7747344431,-5.6675831359
 C,0,7.3897877052,13.7747344431,5.6675831359
 C,0,5.6675831359,7.3897877052,-13.7747344431
 C,0,-5.6675831359,-7.3897877052,13.7747344431
 C,0,-5.6675831359,-7.3897877052,-13.7747344431
 C,0,5.6675831359,7.3897877052,13.7747344431
 C,0,-5.6675831359,7.3897877052,13.7747344431
 C,0,5.6675831359,-7.3897877052,-13.7747344431
 C,0,5.6675831359,-7.3897877052,13.7747344431
 C,0,-5.6675831359,7.3897877052,-13.7747344431
 C,0,13.7747344431,5.6675831359,-7.3897877052
 C,0,-13.7747344431,-5.6675831359,7.3897877052
 C,0,13.7747344431,-5.6675831359,7.3897877052
 C,0,-13.7747344431,5.6675831359,-7.3897877052
 C,0,-13.7747344431,-5.6675831359,-7.3897877052
 C,0,13.7747344431,5.6675831359,7.3897877052
 C,0,-13.7747344431,5.6675831359,7.3897877052
 C,0,13.7747344431,-5.6675831359,-7.3897877052
 C,0,6.5274181126,-14.4767200251,-6.5274181126
 H,0,4.9921783697,-14.324883274,-8.0626895797
 H,0,-4.9921783697,14.324883274,8.0626895797
 C,0,-6.5274181126,14.4767200251,6.5274181126
 H,0,-4.9921783697,-14.324883274,8.0626895797
 C,0,-6.5274181126,-14.4767200251,6.5274181126
 C,0,6.5274181126,14.4767200251,-6.5274181126
 H,0,4.9921783697,14.324883274,-8.0626895797
 H,0,-4.9921783697,14.324883274,-8.0626895797
 C,0,-6.5274181126,14.4767200251,-6.5274181126
 C,0,6.5274181126,-14.4767200251,6.5274181126
 H,0,4.9921783697,-14.324883274,8.0626895797
 C,0,6.5274181126,14.4767200251,6.5274181126
 H,0,4.9921783697,14.324883274,8.0626895797
 H,0,-4.9921783697,-14.324883274,-8.0626895797
 C,0,-6.5274181126,-14.4767200251,-6.5274181126
 C,0,14.4767200251,-6.5274181126,-6.5274181126
 H,0,14.324883274,-8.0626895797,-4.9921783697
 H,0,-14.324883274,8.0626895797,4.9921783697
 C,0,-14.4767200251,6.5274181126,6.5274181126
 H,0,14.324883274,8.0626895797,4.9921783697
 C,0,14.4767200251,6.5274181126,6.5274181126
 C,0,-14.4767200251,-6.5274181126,-6.5274181126
 H,0,-14.324883274,-8.0626895797,-4.9921783697
 H,0,-14.324883274,-8.0626895797,4.9921783697
 C,0,-14.4767200251,-6.5274181126,6.5274181126
 C,0,14.4767200251,6.5274181126,-6.5274181126
 H,0,14.324883274,8.0626895797,-4.9921783697
 C,0,-14.4767200251,6.5274181126,-6.5274181126
 H,0,-14.324883274,8.0626895797,-4.9921783697
 H,0,14.324883274,-8.0626895797,4.9921783697
 C,0,14.4767200251,-6.5274181126,6.5274181126
 C,0,6.5274181126,-6.5274181126,-14.4767200251
 H,0,8.0626895797,-4.9921783697,-14.324883274
 H,0,-8.0626895797,4.9921783697,14.324883274
 C,0,-6.5274181126,6.5274181126,14.4767200251
 H,0,-8.0626895797,4.9921783697,-14.324883274
 C,0,-6.5274181126,6.5274181126,-14.4767200251
 C,0,6.5274181126,-6.5274181126,14.4767200251
 H,0,8.0626895797,-4.9921783697,14.324883274
 H,0,8.0626895797,4.9921783697,14.324883274
 C,0,6.5274181126,6.5274181126,14.4767200251
 C,0,-6.5274181126,-6.5274181126,-14.4767200251
 H,0,-8.0626895797,-4.9921783697,-14.324883274
 C,0,-6.5274181126,-6.5274181126,14.4767200251
 H,0,-8.0626895797,-4.9921783697,14.324883274
 H,0,8.0626895797,4.9921783697,-14.324883274
 C,0,6.5274181126,6.5274181126,-14.4767200251
 H,0,8.0626895797,14.324883274,-4.9921783697
 H,0,-8.0626895797,-14.324883274,4.9921783697
 H,0,-8.0626895797,14.324883274,4.9921783697
 H,0,8.0626895797,-14.324883274,-4.9921783697
 H,0,8.0626895797,-14.324883274,4.9921783697
 H,0,-8.0626895797,14.324883274,-4.9921783697
 H,0,-8.0626895797,-14.324883274,-4.9921783697
 H,0,8.0626895797,14.324883274,4.9921783697
 H,0,4.9921783697,8.0626895797,-14.324883274
 H,0,-4.9921783697,-8.0626895797,14.324883274
 H,0,-4.9921783697,-8.0626895797,-14.324883274
 H,0,4.9921783697,8.0626895797,14.324883274
 H,0,-4.9921783697,8.0626895797,14.324883274
 H,0,4.9921783697,-8.0626895797,-14.324883274
 H,0,4.9921783697,-8.0626895797,14.324883274
 H,0,-4.9921783697,8.0626895797,-14.324883274
 H,0,14.324883274,4.9921783697,-8.0626895797
 H,0,-14.324883274,-4.9921783697,8.0626895797
 H,0,14.324883274,-4.9921783697,8.0626895797
 H,0,-14.324883274,4.9921783697,-8.0626895797
 H,0,-14.324883274,-4.9921783697,-8.0626895797
 H,0,14.324883274,4.9921783697,8.0626895797
 H,0,-14.324883274,4.9921783697,8.0626895797
 H,0,14.324883274,-4.9921783697,-8.0626895797
 H,0,-15.5778261864,-6.5252048562,-6.5252048562
 H,0,15.5778261864,-6.5252048562,-6.5252048562
 H,0,6.5252048562,-6.5252048562,-15.5778261864
 H,0,-6.5252048562,-6.5252048562,-15.5778261864
 H,0,15.5778261864,6.5252048562,-6.5252048562
 H,0,15.5778261864,-6.5252048562,6.5252048562
 H,0,15.5778261864,6.5252048562,6.5252048562
 H,0,6.5252048562,-6.5252048562,15.5778261864
 H,0,6.5252048562,6.5252048562,15.5778261864
 H,0,-6.5252048562,-6.5252048562,15.5778261864
 H,0,-6.5252048562,-15.5778261864,6.5252048562
 H,0,6.5252048562,6.5252048562,-15.5778261864
 H,0,-6.5252048562,6.5252048562,-15.5778261864
 H,0,-6.5252048562,15.5778261864,-6.5252048562
 H,0,-15.5778261864,6.5252048562,6.5252048562
 H,0,-15.5778261864,-6.5252048562,6.5252048562
 H,0,6.5252048562,-15.5778261864,6.5252048562
 H,0,-15.5778261864,6.5252048562,-6.5252048562
 H,0,-6.5252048562,6.5252048562,15.5778261864
 H,0,-6.5252048562,15.5778261864,6.5252048562
 H,0,6.5252048562,15.5778261864,-6.5252048562
 H,0,6.5252048562,15.5778261864,6.5252048562
 H,0,-6.5252048562,-15.5778261864,-6.5252048562
 H,0,6.5252048562,-15.5778261864,-6.5252048562
 Recover connectivity data from disk.

 GradGradGradGradGradGradGradGradGradGradGradGradGradGradGradGradGradGrad
 Berny optimization.
 Initialization pass.
                           ----------------------------
                           !    Initial Parameters    !
                           ! (Angstroms and Degrees)  !
 --------------------------                            --------------------------
 ! Name  Definition              Value          Derivative Info.                !
 --------------------------------------------------------------------------------
 ! R1    R(1,33)                 1.9745         estimate D2E/DX2                !
 ! R2    R(1,41)                 1.9674         estimate D2E/DX2                !
 ! R3    R(1,78)                 1.9674         estimate D2E/DX2                !
 ! R4    R(1,132)                1.9706         estimate D2E/DX2                !
 ! R5    R(2,34)                 1.9745         estimate D2E/DX2                !
 ! R6    R(2,42)                 1.9674         estimate D2E/DX2                !
 ! R7    R(2,77)                 1.9674         estimate D2E/DX2                !
 ! R8    R(2,131)                1.9706         estimate D2E/DX2                !
 ! R9    R(3,35)                 1.9745         estimate D2E/DX2                !
 ! R10   R(3,43)                 1.9674         estimate D2E/DX2                !
 ! R11   R(3,74)                 1.9674         estimate D2E/DX2                !
 ! R12   R(3,134)                1.9706         estimate D2E/DX2                !
 ! R13   R(4,36)                 1.9745         estimate D2E/DX2                !
 ! R14   R(4,44)                 1.9674         estimate D2E/DX2                !
 ! R15   R(4,73)                 1.9674         estimate D2E/DX2                !
 ! R16   R(4,133)                1.9706         estimate D2E/DX2                !
 ! R17   R(5,37)                 1.9745         estimate D2E/DX2                !
 ! R18   R(5,45)                 1.9674         estimate D2E/DX2                !
 ! R19   R(5,80)                 1.9674         estimate D2E/DX2                !
 ! R20   R(5,136)                1.9706         estimate D2E/DX2                !
 ! R21   R(6,38)                 1.9745         estimate D2E/DX2                !
 ! R22   R(6,46)                 1.9674         estimate D2E/DX2                !
 ! R23   R(6,79)                 1.9674         estimate D2E/DX2                !
 ! R24   R(6,135)                1.9706         estimate D2E/DX2                !
 ! R25   R(7,39)                 1.9745         estimate D2E/DX2                !
 ! R26   R(7,47)                 1.9674         estimate D2E/DX2                !
 ! R27   R(7,76)                 1.9674         estimate D2E/DX2                !
 ! R28   R(7,130)                1.9706         estimate D2E/DX2                !
 ! R29   R(8,40)                 1.9745         estimate D2E/DX2                !
 ! R30   R(8,48)                 1.9674         estimate D2E/DX2                !
 ! R31   R(8,75)                 1.9674         estimate D2E/DX2                !
 ! R32   R(8,129)                1.9706         estimate D2E/DX2                !
 ! R33   R(9,33)                 1.9745         estimate D2E/DX2                !
 ! R34   R(9,49)                 1.9674         estimate D2E/DX2                !
 ! R35   R(9,68)                 1.9674         estimate D2E/DX2                !
 ! R36   R(9,101)                1.9706         estimate D2E/DX2                !
 ! R37   R(10,34)                1.9745         estimate D2E/DX2                !
 ! R38   R(10,50)                1.9674         estimate D2E/DX2                !
 ! R39   R(10,67)                1.9674         estimate D2E/DX2                !
 ! R40   R(10,102)               1.9706         estimate D2E/DX2                !
 ! R41   R(11,39)                1.9745         estimate D2E/DX2                !
 ! R42   R(11,51)                1.9674         estimate D2E/DX2                !
 ! R43   R(11,72)                1.9674         estimate D2E/DX2                !
 ! R44   R(11,97)                1.9706         estimate D2E/DX2                !
 ! R45   R(12,40)                1.9745         estimate D2E/DX2                !
 ! R46   R(12,52)                1.9674         estimate D2E/DX2                !
 ! R47   R(12,71)                1.9674         estimate D2E/DX2                !
 ! R48   R(12,98)                1.9706         estimate D2E/DX2                !
 ! R49   R(13,35)                1.9745         estimate D2E/DX2                !
 ! R50   R(13,53)                1.9674         estimate D2E/DX2                !
 ! R51   R(13,66)                1.9674         estimate D2E/DX2                !
 ! R52   R(13,99)                1.9706         estimate D2E/DX2                !
 ! R53   R(14,36)                1.9745         estimate D2E/DX2                !
 ! R54   R(14,54)                1.9674         estimate D2E/DX2                !
 ! R55   R(14,65)                1.9674         estimate D2E/DX2                !
 ! R56   R(14,100)               1.9706         estimate D2E/DX2                !
 ! R57   R(15,37)                1.9745         estimate D2E/DX2                !
 ! R58   R(15,55)                1.9674         estimate D2E/DX2                !
 ! R59   R(15,70)                1.9674         estimate D2E/DX2                !
 ! R60   R(15,103)               1.9706         estimate D2E/DX2                !
 ! R61   R(16,38)                1.9745         estimate D2E/DX2                !
 ! R62   R(16,56)                1.9674         estimate D2E/DX2                !
 ! R63   R(16,69)                1.9674         estimate D2E/DX2                !
 ! R64   R(16,104)               1.9706         estimate D2E/DX2                !
 ! R65   R(17,33)                1.9745         estimate D2E/DX2                !
 ! R66   R(17,57)                1.9674         estimate D2E/DX2                !
 ! R67   R(17,88)                1.9674         estimate D2E/DX2                !
 ! R68   R(17,112)               1.9706         estimate D2E/DX2                !
 ! R69   R(18,34)                1.9745         estimate D2E/DX2                !
 ! R70   R(18,58)                1.9674         estimate D2E/DX2                !
 ! R71   R(18,87)                1.9674         estimate D2E/DX2                !
 ! R72   R(18,111)               1.9706         estimate D2E/DX2                !
 ! R73   R(19,37)                1.9745         estimate D2E/DX2                !
 ! R74   R(19,59)                1.9674         estimate D2E/DX2                !
 ! R75   R(19,84)                1.9674         estimate D2E/DX2                !
 ! R76   R(19,106)               1.9706         estimate D2E/DX2                !
 ! R77   R(20,38)                1.9745         estimate D2E/DX2                !
 ! R78   R(20,60)                1.9674         estimate D2E/DX2                !
 ! R79   R(20,83)                1.9674         estimate D2E/DX2                !
 ! R80   R(20,105)               1.9706         estimate D2E/DX2                !
 ! R81   R(21,39)                1.9745         estimate D2E/DX2                !
 ! R82   R(21,61)                1.9674         estimate D2E/DX2                !
 ! R83   R(21,86)                1.9674         estimate D2E/DX2                !
 ! R84   R(21,108)               1.9706         estimate D2E/DX2                !
 ! R85   R(22,40)                1.9745         estimate D2E/DX2                !
 ! R86   R(22,62)                1.9674         estimate D2E/DX2                !
 ! R87   R(22,85)                1.9674         estimate D2E/DX2                !
 ! R88   R(22,107)               1.9706         estimate D2E/DX2                !
 ! R89   R(23,35)                1.9745         estimate D2E/DX2                !
 ! R90   R(23,63)                1.9674         estimate D2E/DX2                !
 ! R91   R(23,82)                1.9674         estimate D2E/DX2                !
 ! R92   R(23,110)               1.9706         estimate D2E/DX2                !
 ! R93   R(24,36)                1.9745         estimate D2E/DX2                !
 ! R94   R(24,64)                1.9674         estimate D2E/DX2                !
 ! R95   R(24,81)                1.9674         estimate D2E/DX2                !
 ! R96   R(24,109)               1.9706         estimate D2E/DX2                !
 ! R97   R(25,39)                1.9732         estimate D2E/DX2                !
 ! R98   R(25,89)                1.969          estimate D2E/DX2                !
 ! R99   R(25,118)               1.969          estimate D2E/DX2                !
 ! R100  R(25,125)               1.969          estimate D2E/DX2                !
 ! R101  R(26,40)                1.9732         estimate D2E/DX2                !
 ! R102  R(26,90)                1.969          estimate D2E/DX2                !
 ! R103  R(26,117)               1.969          estimate D2E/DX2                !
 ! R104  R(26,126)               1.969          estimate D2E/DX2                !
 ! R105  R(27,37)                1.9732         estimate D2E/DX2                !
 ! R106  R(27,91)                1.969          estimate D2E/DX2                !
 ! R107  R(27,114)               1.969          estimate D2E/DX2                !
 ! R108  R(27,121)               1.969          estimate D2E/DX2                !
 ! R109  R(28,38)                1.9732         estimate D2E/DX2                !
 ! R110  R(28,92)                1.969          estimate D2E/DX2                !
 ! R111  R(28,113)               1.969          estimate D2E/DX2                !
 ! R112  R(28,122)               1.969          estimate D2E/DX2                !
 ! R113  R(29,35)                1.9732         estimate D2E/DX2                !
 ! R114  R(29,93)                1.969          estimate D2E/DX2                !
 ! R115  R(29,120)               1.969          estimate D2E/DX2                !
 ! R116  R(29,123)               1.969          estimate D2E/DX2                !
 ! R117  R(30,36)                1.9732         estimate D2E/DX2                !
 ! R118  R(30,94)                1.969          estimate D2E/DX2                !
 ! R119  R(30,119)               1.969          estimate D2E/DX2                !
 ! R120  R(30,124)               1.969          estimate D2E/DX2                !
 ! R121  R(31,33)                1.9732         estimate D2E/DX2                !
 ! R122  R(31,95)                1.969          estimate D2E/DX2                !
 ! R123  R(31,116)               1.969          estimate D2E/DX2                !
 ! R124  R(31,127)               1.969          estimate D2E/DX2                !
 ! R125  R(32,34)                1.9732         estimate D2E/DX2                !
 ! R126  R(32,96)                1.969          estimate D2E/DX2                !
 ! R127  R(32,115)               1.969          estimate D2E/DX2                !
 ! R128  R(32,128)               1.969          estimate D2E/DX2                !
 ! R129  R(41,137)               1.2747         estimate D2E/DX2                !
 ! R130  R(42,138)               1.2747         estimate D2E/DX2                !
 ! R131  R(43,139)               1.2747         estimate D2E/DX2                !
 ! R132  R(44,140)               1.2747         estimate D2E/DX2                !
 ! R133  R(45,141)               1.2747         estimate D2E/DX2                !
 ! R134  R(46,142)               1.2747         estimate D2E/DX2                !
 ! R135  R(47,143)               1.2747         estimate D2E/DX2                !
 ! R136  R(48,144)               1.2747         estimate D2E/DX2                !
 ! R137  R(49,145)               1.2747         estimate D2E/DX2                !
 ! R138  R(50,146)               1.2747         estimate D2E/DX2                !
 ! R139  R(51,147)               1.2747         estimate D2E/DX2                !
 ! R140  R(52,148)               1.2747         estimate D2E/DX2                !
 ! R141  R(53,149)               1.2747         estimate D2E/DX2                !
 ! R142  R(54,150)               1.2747         estimate D2E/DX2                !
 ! R143  R(55,151)               1.2747         estimate D2E/DX2                !
 ! R144  R(56,152)               1.2747         estimate D2E/DX2                !
 ! R145  R(57,153)               1.2747         estimate D2E/DX2                !
 ! R146  R(58,154)               1.2747         estimate D2E/DX2                !
 ! R147  R(59,155)               1.2747         estimate D2E/DX2                !
 ! R148  R(60,156)               1.2747         estimate D2E/DX2                !
 ! R149  R(61,157)               1.2747         estimate D2E/DX2                !
 ! R150  R(62,158)               1.2747         estimate D2E/DX2                !
 ! R151  R(63,159)               1.2747         estimate D2E/DX2                !
 ! R152  R(64,160)               1.2747         estimate D2E/DX2                !
 ! R153  R(65,140)               1.2747         estimate D2E/DX2                !
 ! R154  R(66,139)               1.2747         estimate D2E/DX2                !
 ! R155  R(67,138)               1.2747         estimate D2E/DX2                !
 ! R156  R(68,137)               1.2747         estimate D2E/DX2                !
 ! R157  R(69,142)               1.2747         estimate D2E/DX2                !
 ! R158  R(70,141)               1.2747         estimate D2E/DX2                !
 ! R159  R(71,144)               1.2747         estimate D2E/DX2                !
 ! R160  R(72,143)               1.2747         estimate D2E/DX2                !
 ! R161  R(73,160)               1.2747         estimate D2E/DX2                !
 ! R162  R(74,159)               1.2747         estimate D2E/DX2                !
 ! R163  R(75,158)               1.2747         estimate D2E/DX2                !
 ! R164  R(76,157)               1.2747         estimate D2E/DX2                !
 ! R165  R(77,154)               1.2747         estimate D2E/DX2                !
 ! R166  R(78,153)               1.2747         estimate D2E/DX2                !
 ! R167  R(79,156)               1.2747         estimate D2E/DX2                !
 ! R168  R(80,155)               1.2747         estimate D2E/DX2                !
 ! R169  R(81,150)               1.2747         estimate D2E/DX2                !
 ! R170  R(82,149)               1.2747         estimate D2E/DX2                !
 ! R171  R(83,152)               1.2747         estimate D2E/DX2                !
 ! R172  R(84,151)               1.2747         estimate D2E/DX2                !
 ! R173  R(85,148)               1.2747         estimate D2E/DX2                !
 ! R174  R(86,147)               1.2747         estimate D2E/DX2                !
 ! R175  R(87,146)               1.2747         estimate D2E/DX2                !
 ! R176  R(88,145)               1.2747         estimate D2E/DX2                !
 ! R177  R(89,161)               1.274          estimate D2E/DX2                !
 ! R178  R(90,162)               1.274          estimate D2E/DX2                !
 ! R179  R(91,163)               1.274          estimate D2E/DX2                !
 ! R180  R(92,164)               1.274          estimate D2E/DX2                !
 ! R181  R(93,165)               1.274          estimate D2E/DX2                !
 ! R182  R(94,166)               1.274          estimate D2E/DX2                !
 ! R183  R(95,167)               1.274          estimate D2E/DX2                !
 ! R184  R(96,168)               1.274          estimate D2E/DX2                !
 ! R185  R(97,169)               1.2736         estimate D2E/DX2                !
 ! R186  R(98,170)               1.2736         estimate D2E/DX2                !
 ! R187  R(99,171)               1.2736         estimate D2E/DX2                !
 ! R188  R(100,172)              1.2736         estimate D2E/DX2                !
 ! R189  R(101,173)              1.2736         estimate D2E/DX2                !
 ! R190  R(102,174)              1.2736         estimate D2E/DX2                !
 ! R191  R(103,175)              1.2736         estimate D2E/DX2                !
 ! R192  R(104,176)              1.2736         estimate D2E/DX2                !
 ! R193  R(105,164)              1.2736         estimate D2E/DX2                !
 ! R194  R(106,163)              1.2736         estimate D2E/DX2                !
 ! R195  R(107,162)              1.2736         estimate D2E/DX2                !
 ! R196  R(108,161)              1.2736         estimate D2E/DX2                !
 ! R197  R(109,166)              1.2736         estimate D2E/DX2                !
 ! R198  R(110,165)              1.2736         estimate D2E/DX2                !
 ! R199  R(111,168)              1.2736         estimate D2E/DX2                !
 ! R200  R(112,167)              1.2736         estimate D2E/DX2                !
 ! R201  R(113,176)              1.274          estimate D2E/DX2                !
 ! R202  R(114,175)              1.274          estimate D2E/DX2                !
 ! R203  R(115,174)              1.274          estimate D2E/DX2                !
 ! R204  R(116,173)              1.274          estimate D2E/DX2                !
 ! R205  R(117,170)              1.274          estimate D2E/DX2                !
 ! R206  R(118,169)              1.274          estimate D2E/DX2                !
 ! R207  R(119,172)              1.274          estimate D2E/DX2                !
 ! R208  R(120,171)              1.274          estimate D2E/DX2                !
 ! R209  R(121,177)              1.274          estimate D2E/DX2                !
 ! R210  R(122,178)              1.274          estimate D2E/DX2                !
 ! R211  R(123,179)              1.274          estimate D2E/DX2                !
 ! R212  R(124,180)              1.274          estimate D2E/DX2                !
 ! R213  R(125,181)              1.274          estimate D2E/DX2                !
 ! R214  R(126,182)              1.274          estimate D2E/DX2                !
 ! R215  R(127,183)              1.274          estimate D2E/DX2                !
 ! R216  R(128,184)              1.274          estimate D2E/DX2                !
 ! R217  R(129,182)              1.2736         estimate D2E/DX2                !
 ! R218  R(130,181)              1.2736         estimate D2E/DX2                !
 ! R219  R(131,184)              1.2736         estimate D2E/DX2                !
 ! R220  R(132,183)              1.2736         estimate D2E/DX2                !
 ! R221  R(133,180)              1.2736         estimate D2E/DX2                !
 ! R222  R(134,179)              1.2736         estimate D2E/DX2                !
 ! R223  R(135,178)              1.2736         estimate D2E/DX2                !
 ! R224  R(136,177)              1.2736         estimate D2E/DX2                !
 ! R225  R(137,281)              1.5            estimate D2E/DX2                !
 ! R226  R(138,282)              1.5            estimate D2E/DX2                !
 ! R227  R(139,283)              1.5            estimate D2E/DX2                !
 ! R228  R(140,284)              1.5            estimate D2E/DX2                !
 ! R229  R(141,285)              1.5            estimate D2E/DX2                !
 ! R230  R(142,286)              1.5            estimate D2E/DX2                !
 ! R231  R(143,287)              1.5            estimate D2E/DX2                !
 ! R232  R(144,288)              1.5            estimate D2E/DX2                !
 ! R233  R(145,289)              1.5            estimate D2E/DX2                !
 ! R234  R(146,290)              1.5            estimate D2E/DX2                !
 ! R235  R(147,291)              1.5            estimate D2E/DX2                !
 ! R236  R(148,292)              1.5            estimate D2E/DX2                !
 ! R237  R(149,293)              1.5            estimate D2E/DX2                !
 ! R238  R(150,294)              1.5            estimate D2E/DX2                !
 ! R239  R(151,295)              1.5            estimate D2E/DX2                !
 ! R240  R(152,296)              1.5            estimate D2E/DX2                !
 ! R241  R(153,297)              1.5            estimate D2E/DX2                !
 ! R242  R(154,298)              1.5            estimate D2E/DX2                !
 ! R243  R(155,299)              1.5            estimate D2E/DX2                !
 ! R244  R(156,300)              1.5            estimate D2E/DX2                !
 ! R245  R(157,301)              1.5            estimate D2E/DX2                !
 ! R246  R(158,302)              1.5            estimate D2E/DX2                !
 ! R247  R(159,303)              1.5            estimate D2E/DX2                !
 ! R248  R(160,304)              1.5            estimate D2E/DX2                !
 ! R249  R(161,305)              1.502          estimate D2E/DX2                !
 ! R250  R(162,306)              1.502          estimate D2E/DX2                !
 ! R251  R(163,307)              1.502          estimate D2E/DX2                !
 ! R252  R(164,308)              1.502          estimate D2E/DX2                !
 ! R253  R(165,309)              1.502          estimate D2E/DX2                !
 ! R254  R(166,310)              1.502          estimate D2E/DX2                !
 ! R255  R(167,311)              1.502          estimate D2E/DX2                !
 ! R256  R(168,312)              1.502          estimate D2E/DX2                !
 ! R257  R(169,313)              1.502          estimate D2E/DX2                !
 ! R258  R(170,314)              1.502          estimate D2E/DX2                !
 ! R259  R(171,315)              1.502          estimate D2E/DX2                !
 ! R260  R(172,316)              1.502          estimate D2E/DX2                !
 ! R261  R(173,317)              1.502          estimate D2E/DX2                !
 ! R262  R(174,318)              1.502          estimate D2E/DX2                !
 ! R263  R(175,319)              1.502          estimate D2E/DX2                !
 ! R264  R(176,320)              1.502          estimate D2E/DX2                !
 ! R265  R(177,321)              1.502          estimate D2E/DX2                !
 ! R266  R(178,322)              1.502          estimate D2E/DX2                !
 ! R267  R(179,323)              1.502          estimate D2E/DX2                !
 ! R268  R(180,324)              1.502          estimate D2E/DX2                !
 ! R269  R(181,325)              1.502          estimate D2E/DX2                !
 ! R270  R(182,326)              1.502          estimate D2E/DX2                !
 ! R271  R(183,327)              1.502          estimate D2E/DX2                !
 ! R272  R(184,328)              1.502          estimate D2E/DX2                !
 ! R273  R(185,281)              1.4101         estimate D2E/DX2                !
 ! R274  R(185,329)              1.0994         estimate D2E/DX2                !
 ! R275  R(185,425)              1.4011         estimate D2E/DX2                !
 ! R276  R(186,282)              1.4101         estimate D2E/DX2                !
 ! R277  R(186,330)              1.0994         estimate D2E/DX2                !
 ! R278  R(186,426)              1.4011         estimate D2E/DX2                !
 ! R279  R(187,283)              1.4101         estimate D2E/DX2                !
 ! R280  R(187,331)              1.0994         estimate D2E/DX2                !
 ! R281  R(187,427)              1.4011         estimate D2E/DX2                !
 ! R282  R(188,284)              1.4101         estimate D2E/DX2                !
 ! R283  R(188,332)              1.0994         estimate D2E/DX2                !
 ! R284  R(188,428)              1.4011         estimate D2E/DX2                !
 ! R285  R(189,285)              1.4101         estimate D2E/DX2                !
 ! R286  R(189,333)              1.0994         estimate D2E/DX2                !
 ! R287  R(189,429)              1.4011         estimate D2E/DX2                !
 ! R288  R(190,286)              1.4101         estimate D2E/DX2                !
 ! R289  R(190,334)              1.0994         estimate D2E/DX2                !
 ! R290  R(190,430)              1.4011         estimate D2E/DX2                !
 ! R291  R(191,287)              1.4101         estimate D2E/DX2                !
 ! R292  R(191,335)              1.0994         estimate D2E/DX2                !
 ! R293  R(191,431)              1.4011         estimate D2E/DX2                !
 ! R294  R(192,288)              1.4101         estimate D2E/DX2                !
 ! R295  R(192,336)              1.0994         estimate D2E/DX2                !
 ! R296  R(192,432)              1.4011         estimate D2E/DX2                !
 ! R297  R(193,289)              1.4101         estimate D2E/DX2                !
 ! R298  R(193,337)              1.0994         estimate D2E/DX2                !
 ! R299  R(193,433)              1.4011         estimate D2E/DX2                !
 ! R300  R(194,290)              1.4101         estimate D2E/DX2                !
 ! R301  R(194,338)              1.0994         estimate D2E/DX2                !
 ! R302  R(194,434)              1.4011         estimate D2E/DX2                !
 ! R303  R(195,291)              1.4101         estimate D2E/DX2                !
 ! R304  R(195,339)              1.0994         estimate D2E/DX2                !
 ! R305  R(195,435)              1.4011         estimate D2E/DX2                !
 ! R306  R(196,292)              1.4101         estimate D2E/DX2                !
 ! R307  R(196,340)              1.0994         estimate D2E/DX2                !
 ! R308  R(196,436)              1.4011         estimate D2E/DX2                !
 ! R309  R(197,293)              1.4101         estimate D2E/DX2                !
 ! R310  R(197,341)              1.0994         estimate D2E/DX2                !
 ! R311  R(197,437)              1.4011         estimate D2E/DX2                !
 ! R312  R(198,294)              1.4101         estimate D2E/DX2                !
 ! R313  R(198,342)              1.0994         estimate D2E/DX2                !
 ! R314  R(198,438)              1.4011         estimate D2E/DX2                !
 ! R315  R(199,295)              1.4101         estimate D2E/DX2                !
 ! R316  R(199,343)              1.0994         estimate D2E/DX2                !
 ! R317  R(199,439)              1.4011         estimate D2E/DX2                !
 ! R318  R(200,296)              1.4101         estimate D2E/DX2                !
 ! R319  R(200,344)              1.0994         estimate D2E/DX2                !
 ! R320  R(200,440)              1.4011         estimate D2E/DX2                !
 ! R321  R(201,297)              1.4101         estimate D2E/DX2                !
 ! R322  R(201,345)              1.0994         estimate D2E/DX2                !
 ! R323  R(201,441)              1.4011         estimate D2E/DX2                !
 ! R324  R(202,298)              1.4101         estimate D2E/DX2                !
 ! R325  R(202,346)              1.0994         estimate D2E/DX2                !
 ! R326  R(202,442)              1.4011         estimate D2E/DX2                !
 ! R327  R(203,299)              1.4101         estimate D2E/DX2                !
 ! R328  R(203,347)              1.0994         estimate D2E/DX2                !
 ! R329  R(203,443)              1.4011         estimate D2E/DX2                !
 ! R330  R(204,300)              1.4101         estimate D2E/DX2                !
 ! R331  R(204,348)              1.0994         estimate D2E/DX2                !
 ! R332  R(204,444)              1.4011         estimate D2E/DX2                !
 ! R333  R(205,301)              1.4101         estimate D2E/DX2                !
 ! R334  R(205,349)              1.0994         estimate D2E/DX2                !
 ! R335  R(205,445)              1.4011         estimate D2E/DX2                !
 ! R336  R(206,302)              1.4101         estimate D2E/DX2                !
 ! R337  R(206,350)              1.0994         estimate D2E/DX2                !
 ! R338  R(206,446)              1.4011         estimate D2E/DX2                !
 ! R339  R(207,303)              1.4101         estimate D2E/DX2                !
 ! R340  R(207,351)              1.0994         estimate D2E/DX2                !
 ! R341  R(207,447)              1.4011         estimate D2E/DX2                !
 ! R342  R(208,304)              1.4101         estimate D2E/DX2                !
 ! R343  R(208,352)              1.0994         estimate D2E/DX2                !
 ! R344  R(208,448)              1.4011         estimate D2E/DX2                !
 ! R345  R(209,284)              1.4101         estimate D2E/DX2                !
 ! R346  R(209,353)              1.0994         estimate D2E/DX2                !
 ! R347  R(209,449)              1.4011         estimate D2E/DX2                !
 ! R348  R(210,283)              1.4101         estimate D2E/DX2                !
 ! R349  R(210,354)              1.0994         estimate D2E/DX2                !
 ! R350  R(210,450)              1.4011         estimate D2E/DX2                !
 ! R351  R(211,282)              1.4101         estimate D2E/DX2                !
 ! R352  R(211,355)              1.0994         estimate D2E/DX2                !
 ! R353  R(211,451)              1.4011         estimate D2E/DX2                !
 ! R354  R(212,281)              1.4101         estimate D2E/DX2                !
 ! R355  R(212,356)              1.0994         estimate D2E/DX2                !
 ! R356  R(212,452)              1.4011         estimate D2E/DX2                !
 ! R357  R(213,286)              1.4101         estimate D2E/DX2                !
 ! R358  R(213,357)              1.0994         estimate D2E/DX2                !
 ! R359  R(213,453)              1.4011         estimate D2E/DX2                !
 ! R360  R(214,285)              1.4101         estimate D2E/DX2                !
 ! R361  R(214,358)              1.0994         estimate D2E/DX2                !
 ! R362  R(214,454)              1.4011         estimate D2E/DX2                !
 ! R363  R(215,288)              1.4101         estimate D2E/DX2                !
 ! R364  R(215,359)              1.0994         estimate D2E/DX2                !
 ! R365  R(215,455)              1.4011         estimate D2E/DX2                !
 ! R366  R(216,287)              1.4101         estimate D2E/DX2                !
 ! R367  R(216,360)              1.0994         estimate D2E/DX2                !
 ! R368  R(216,456)              1.4011         estimate D2E/DX2                !
 ! R369  R(217,304)              1.4101         estimate D2E/DX2                !
 ! R370  R(217,361)              1.0994         estimate D2E/DX2                !
 ! R371  R(217,457)              1.4011         estimate D2E/DX2                !
 ! R372  R(218,303)              1.4101         estimate D2E/DX2                !
 ! R373  R(218,362)              1.0994         estimate D2E/DX2                !
 ! R374  R(218,458)              1.4011         estimate D2E/DX2                !
 ! R375  R(219,302)              1.4101         estimate D2E/DX2                !
 ! R376  R(219,363)              1.0994         estimate D2E/DX2                !
 ! R377  R(219,459)              1.4011         estimate D2E/DX2                !
 ! R378  R(220,301)              1.4101         estimate D2E/DX2                !
 ! R379  R(220,364)              1.0994         estimate D2E/DX2                !
 ! R380  R(220,460)              1.4011         estimate D2E/DX2                !
 ! R381  R(221,298)              1.4101         estimate D2E/DX2                !
 ! R382  R(221,365)              1.0994         estimate D2E/DX2                !
 ! R383  R(221,461)              1.4011         estimate D2E/DX2                !
 ! R384  R(222,297)              1.4101         estimate D2E/DX2                !
 ! R385  R(222,366)              1.0994         estimate D2E/DX2                !
 ! R386  R(222,462)              1.4011         estimate D2E/DX2                !
 ! R387  R(223,300)              1.4101         estimate D2E/DX2                !
 ! R388  R(223,367)              1.0994         estimate D2E/DX2                !
 ! R389  R(223,463)              1.4011         estimate D2E/DX2                !
 ! R390  R(224,299)              1.4101         estimate D2E/DX2                !
 ! R391  R(224,368)              1.0994         estimate D2E/DX2                !
 ! R392  R(224,464)              1.4011         estimate D2E/DX2                !
 ! R393  R(225,294)              1.4101         estimate D2E/DX2                !
 ! R394  R(225,369)              1.0994         estimate D2E/DX2                !
 ! R395  R(225,465)              1.4011         estimate D2E/DX2                !
 ! R396  R(226,293)              1.4101         estimate D2E/DX2                !
 ! R397  R(226,370)              1.0994         estimate D2E/DX2                !
 ! R398  R(226,466)              1.4011         estimate D2E/DX2                !
 ! R399  R(227,296)              1.4101         estimate D2E/DX2                !
 ! R400  R(227,371)              1.0994         estimate D2E/DX2                !
 ! R401  R(227,467)              1.4011         estimate D2E/DX2                !
 ! R402  R(228,295)              1.4101         estimate D2E/DX2                !
 ! R403  R(228,372)              1.0994         estimate D2E/DX2                !
 ! R404  R(228,468)              1.4011         estimate D2E/DX2                !
 ! R405  R(229,292)              1.4101         estimate D2E/DX2                !
 ! R406  R(229,373)              1.0994         estimate D2E/DX2                !
 ! R407  R(229,469)              1.4011         estimate D2E/DX2                !
 ! R408  R(230,291)              1.4101         estimate D2E/DX2                !
 ! R409  R(230,374)              1.0994         estimate D2E/DX2                !
 ! R410  R(230,470)              1.4011         estimate D2E/DX2                !
 ! R411  R(231,290)              1.4101         estimate D2E/DX2                !
 ! R412  R(231,375)              1.0994         estimate D2E/DX2                !
 ! R413  R(231,471)              1.4011         estimate D2E/DX2                !
 ! R414  R(232,289)              1.4101         estimate D2E/DX2                !
 ! R415  R(232,376)              1.0994         estimate D2E/DX2                !
 ! R416  R(232,472)              1.4011         estimate D2E/DX2                !
 ! R417  R(233,236)              1.398          estimate D2E/DX2                !
 ! R418  R(233,305)              1.4104         estimate D2E/DX2                !
 ! R419  R(233,377)              1.0992         estimate D2E/DX2                !
 ! R420  R(234,235)              1.398          estimate D2E/DX2                !
 ! R421  R(234,306)              1.4104         estimate D2E/DX2                !
 ! R422  R(234,378)              1.0992         estimate D2E/DX2                !
 ! R423  R(235,307)              1.4104         estimate D2E/DX2                !
 ! R424  R(235,379)              1.0992         estimate D2E/DX2                !
 ! R425  R(236,308)              1.4104         estimate D2E/DX2                !
 ! R426  R(236,380)              1.0992         estimate D2E/DX2                !
 ! R427  R(237,240)              1.398          estimate D2E/DX2                !
 ! R428  R(237,309)              1.4104         estimate D2E/DX2                !
 ! R429  R(237,381)              1.0992         estimate D2E/DX2                !
 ! R430  R(238,239)              1.398          estimate D2E/DX2                !
 ! R431  R(238,310)              1.4104         estimate D2E/DX2                !
 ! R432  R(238,382)              1.0992         estimate D2E/DX2                !
 ! R433  R(239,311)              1.4104         estimate D2E/DX2                !
 ! R434  R(239,383)              1.0992         estimate D2E/DX2                !
 ! R435  R(240,312)              1.4104         estimate D2E/DX2                !
 ! R436  R(240,384)              1.0992         estimate D2E/DX2                !
 ! R437  R(241,244)              1.398          estimate D2E/DX2                !
 ! R438  R(241,313)              1.4104         estimate D2E/DX2                !
 ! R439  R(241,385)              1.0992         estimate D2E/DX2                !
 ! R440  R(242,243)              1.398          estimate D2E/DX2                !
 ! R441  R(242,314)              1.4104         estimate D2E/DX2                !
 ! R442  R(242,386)              1.0992         estimate D2E/DX2                !
 ! R443  R(243,315)              1.4104         estimate D2E/DX2                !
 ! R444  R(243,387)              1.0992         estimate D2E/DX2                !
 ! R445  R(244,316)              1.4104         estimate D2E/DX2                !
 ! R446  R(244,388)              1.0992         estimate D2E/DX2                !
 ! R447  R(245,248)              1.398          estimate D2E/DX2                !
 ! R448  R(245,317)              1.4104         estimate D2E/DX2                !
 ! R449  R(245,389)              1.0992         estimate D2E/DX2                !
 ! R450  R(246,247)              1.398          estimate D2E/DX2                !
 ! R451  R(246,318)              1.4104         estimate D2E/DX2                !
 ! R452  R(246,390)              1.0992         estimate D2E/DX2                !
 ! R453  R(247,319)              1.4104         estimate D2E/DX2                !
 ! R454  R(247,391)              1.0992         estimate D2E/DX2                !
 ! R455  R(248,320)              1.4104         estimate D2E/DX2                !
 ! R456  R(248,392)              1.0992         estimate D2E/DX2                !
 ! R457  R(249,252)              1.398          estimate D2E/DX2                !
 ! R458  R(249,308)              1.4104         estimate D2E/DX2                !
 ! R459  R(249,393)              1.0992         estimate D2E/DX2                !
 ! R460  R(250,251)              1.398          estimate D2E/DX2                !
 ! R461  R(250,307)              1.4104         estimate D2E/DX2                !
 ! R462  R(250,394)              1.0992         estimate D2E/DX2                !
 ! R463  R(251,306)              1.4104         estimate D2E/DX2                !
 ! R464  R(251,395)              1.0992         estimate D2E/DX2                !
 ! R465  R(252,305)              1.4104         estimate D2E/DX2                !
 ! R466  R(252,396)              1.0992         estimate D2E/DX2                !
 ! R467  R(253,256)              1.398          estimate D2E/DX2                !
 ! R468  R(253,310)              1.4104         estimate D2E/DX2                !
 ! R469  R(253,397)              1.0992         estimate D2E/DX2                !
 ! R470  R(254,255)              1.398          estimate D2E/DX2                !
 ! R471  R(254,309)              1.4104         estimate D2E/DX2                !
 ! R472  R(254,398)              1.0992         estimate D2E/DX2                !
 ! R473  R(255,312)              1.4104         estimate D2E/DX2                !
 ! R474  R(255,399)              1.0992         estimate D2E/DX2                !
 ! R475  R(256,311)              1.4104         estimate D2E/DX2                !
 ! R476  R(256,400)              1.0992         estimate D2E/DX2                !
 ! R477  R(257,260)              1.398          estimate D2E/DX2                !
 ! R478  R(257,320)              1.4104         estimate D2E/DX2                !
 ! R479  R(257,401)              1.0992         estimate D2E/DX2                !
 ! R480  R(258,259)              1.398          estimate D2E/DX2                !
 ! R481  R(258,319)              1.4104         estimate D2E/DX2                !
 ! R482  R(258,402)              1.0992         estimate D2E/DX2                !
 ! R483  R(259,318)              1.4104         estimate D2E/DX2                !
 ! R484  R(259,403)              1.0992         estimate D2E/DX2                !
 ! R485  R(260,317)              1.4104         estimate D2E/DX2                !
 ! R486  R(260,404)              1.0992         estimate D2E/DX2                !
 ! R487  R(261,264)              1.398          estimate D2E/DX2                !
 ! R488  R(261,314)              1.4104         estimate D2E/DX2                !
 ! R489  R(261,405)              1.0992         estimate D2E/DX2                !
 ! R490  R(262,263)              1.398          estimate D2E/DX2                !
 ! R491  R(262,313)              1.4104         estimate D2E/DX2                !
 ! R492  R(262,406)              1.0992         estimate D2E/DX2                !
 ! R493  R(263,316)              1.4104         estimate D2E/DX2                !
 ! R494  R(263,407)              1.0992         estimate D2E/DX2                !
 ! R495  R(264,315)              1.4104         estimate D2E/DX2                !
 ! R496  R(264,408)              1.0992         estimate D2E/DX2                !
 ! R497  R(265,268)              1.398          estimate D2E/DX2                !
 ! R498  R(265,321)              1.4104         estimate D2E/DX2                !
 ! R499  R(265,409)              1.0992         estimate D2E/DX2                !
 ! R500  R(266,267)              1.398          estimate D2E/DX2                !
 ! R501  R(266,322)              1.4104         estimate D2E/DX2                !
 ! R502  R(266,410)              1.0992         estimate D2E/DX2                !
 ! R503  R(267,323)              1.4104         estimate D2E/DX2                !
 ! R504  R(267,411)              1.0992         estimate D2E/DX2                !
 ! R505  R(268,324)              1.4104         estimate D2E/DX2                !
 ! R506  R(268,412)              1.0992         estimate D2E/DX2                !
 ! R507  R(269,272)              1.398          estimate D2E/DX2                !
 ! R508  R(269,325)              1.4104         estimate D2E/DX2                !
 ! R509  R(269,413)              1.0992         estimate D2E/DX2                !
 ! R510  R(270,271)              1.398          estimate D2E/DX2                !
 ! R511  R(270,326)              1.4104         estimate D2E/DX2                !
 ! R512  R(270,414)              1.0992         estimate D2E/DX2                !
 ! R513  R(271,327)              1.4104         estimate D2E/DX2                !
 ! R514  R(271,415)              1.0992         estimate D2E/DX2                !
 ! R515  R(272,328)              1.4104         estimate D2E/DX2                !
 ! R516  R(272,416)              1.0992         estimate D2E/DX2                !
 ! R517  R(273,276)              1.398          estimate D2E/DX2                !
 ! R518  R(273,326)              1.4104         estimate D2E/DX2                !
 ! R519  R(273,417)              1.0992         estimate D2E/DX2                !
 ! R520  R(274,275)              1.398          estimate D2E/DX2                !
 ! R521  R(274,325)              1.4104         estimate D2E/DX2                !
 ! R522  R(274,418)              1.0992         estimate D2E/DX2                !
 ! R523  R(275,328)              1.4104         estimate D2E/DX2                !
 ! R524  R(275,419)              1.0992         estimate D2E/DX2                !
 ! R525  R(276,327)              1.4104         estimate D2E/DX2                !
 ! R526  R(276,420)              1.0992         estimate D2E/DX2                !
 ! R527  R(277,280)              1.398          estimate D2E/DX2                !
 ! R528  R(277,324)              1.4104         estimate D2E/DX2                !
 ! R529  R(277,421)              1.0992         estimate D2E/DX2                !
 ! R530  R(278,279)              1.398          estimate D2E/DX2                !
 ! R531  R(278,323)              1.4104         estimate D2E/DX2                !
 ! R532  R(278,422)              1.0992         estimate D2E/DX2                !
 ! R533  R(279,322)              1.4104         estimate D2E/DX2                !
 ! R534  R(279,423)              1.0992         estimate D2E/DX2                !
 ! R535  R(280,321)              1.4104         estimate D2E/DX2                !
 ! R536  R(280,424)              1.0992         estimate D2E/DX2                !
 ! R537  R(425,473)              1.4056         estimate D2E/DX2                !
 ! R538  R(425,474)              1.1007         estimate D2E/DX2                !
 ! R539  R(426,475)              1.1007         estimate D2E/DX2                !
 ! R540  R(426,476)              1.4056         estimate D2E/DX2                !
 ! R541  R(427,477)              1.1007         estimate D2E/DX2                !
 ! R542  R(427,478)              1.4056         estimate D2E/DX2                !
 ! R543  R(428,479)              1.4056         estimate D2E/DX2                !
 ! R544  R(428,480)              1.1007         estimate D2E/DX2                !
 ! R545  R(429,481)              1.1007         estimate D2E/DX2                !
 ! R546  R(429,482)              1.4056         estimate D2E/DX2                !
 ! R547  R(430,483)              1.4056         estimate D2E/DX2                !
 ! R548  R(430,484)              1.1007         estimate D2E/DX2                !
 ! R549  R(431,485)              1.4056         estimate D2E/DX2                !
 ! R550  R(431,486)              1.1007         estimate D2E/DX2                !
 ! R551  R(432,487)              1.1007         estimate D2E/DX2                !
 ! R552  R(432,488)              1.4056         estimate D2E/DX2                !
 ! R553  R(433,489)              1.4056         estimate D2E/DX2                !
 ! R554  R(433,490)              1.1007         estimate D2E/DX2                !
 ! R555  R(434,491)              1.1007         estimate D2E/DX2                !
 ! R556  R(434,492)              1.4056         estimate D2E/DX2                !
 ! R557  R(435,493)              1.1007         estimate D2E/DX2                !
 ! R558  R(435,494)              1.4056         estimate D2E/DX2                !
 ! R559  R(436,495)              1.4056         estimate D2E/DX2                !
 ! R560  R(436,496)              1.1007         estimate D2E/DX2                !
 ! R561  R(437,497)              1.1007         estimate D2E/DX2                !
 ! R562  R(437,498)              1.4056         estimate D2E/DX2                !
 ! R563  R(438,499)              1.4056         estimate D2E/DX2                !
 ! R564  R(438,500)              1.1007         estimate D2E/DX2                !
 ! R565  R(439,501)              1.4056         estimate D2E/DX2                !
 ! R566  R(439,502)              1.1007         estimate D2E/DX2                !
 ! R567  R(440,503)              1.1007         estimate D2E/DX2                !
 ! R568  R(440,504)              1.4056         estimate D2E/DX2                !
 ! R569  R(441,505)              1.4056         estimate D2E/DX2                !
 ! R570  R(441,506)              1.1007         estimate D2E/DX2                !
 ! R571  R(442,507)              1.1007         estimate D2E/DX2                !
 ! R572  R(442,508)              1.4056         estimate D2E/DX2                !
 ! R573  R(443,509)              1.1007         estimate D2E/DX2                !
 ! R574  R(443,510)              1.4056         estimate D2E/DX2                !
 ! R575  R(444,511)              1.4056         estimate D2E/DX2                !
 ! R576  R(444,512)              1.1007         estimate D2E/DX2                !
 ! R577  R(445,513)              1.1007         estimate D2E/DX2                !
 ! R578  R(445,514)              1.4056         estimate D2E/DX2                !
 ! R579  R(446,515)              1.4056         estimate D2E/DX2                !
 ! R580  R(446,516)              1.1007         estimate D2E/DX2                !
 ! R581  R(447,517)              1.4056         estimate D2E/DX2                !
 ! R582  R(447,518)              1.1007         estimate D2E/DX2                !
 ! R583  R(448,519)              1.1007         estimate D2E/DX2                !
 ! R584  R(448,520)              1.4056         estimate D2E/DX2                !
 ! R585  R(449,479)              1.4056         estimate D2E/DX2                !
 ! R586  R(449,521)              1.1007         estimate D2E/DX2                !
 ! R587  R(450,478)              1.4056         estimate D2E/DX2                !
 ! R588  R(450,522)              1.1007         estimate D2E/DX2                !
 ! R589  R(451,476)              1.4056         estimate D2E/DX2                !
 ! R590  R(451,523)              1.1007         estimate D2E/DX2                !
 ! R591  R(452,473)              1.4056         estimate D2E/DX2                !
 ! R592  R(452,524)              1.1007         estimate D2E/DX2                !
 ! R593  R(453,483)              1.4056         estimate D2E/DX2                !
[...]
 O,-3.4869558588,-7.3378806435,-7.3378806435\O,3.4869558588,7.337880643
 5,7.3378806435\O,-3.4869558588,7.3378806435,7.3378806435\O,3.486955858
 8,-7.3378806435,-7.3378806435\O,3.4869558588,7.3378806435,-7.337880643
 5\O,-3.4869558588,-7.3378806435,7.3378806435\O,3.4869558588,-7.3378806
 435,7.3378806435\O,-3.4869558588,7.3378806435,-7.3378806435\C,6.527761
 3358,-10.1655596922,-6.5277613358\C,-6.5277613358,10.1655596922,6.5277
 613358\C,-6.5277613358,-10.1655596922,6.5277613358\C,6.5277613358,10.1
 655596922,-6.5277613358\C,-6.5277613358,10.1655596922,-6.5277613358\C,
 6.5277613358,-10.1655596922,6.5277613358\C,6.5277613358,10.1655596922,
 6.5277613358\C,-6.5277613358,-10.1655596922,-6.5277613358\C,10.1655596
 922,-6.5277613358,-6.5277613358\C,-10.1655596922,6.5277613358,6.527761
 3358\C,10.1655596922,6.5277613358,6.5277613358\C,-10.1655596922,-6.527
 7613358,-6.5277613358\C,-10.1655596922,-6.5277613358,6.5277613358\C,10
 .1655596922,6.5277613358,-6.5277613358\C,-10.1655596922,6.5277613358,-
 6.5277613358\C,10.1655596922,-6.5277613358,6.5277613358\C,6.5277613358
 ,-6.5277613358,-10.1655596922\C,-6.5277613358,6.5277613358,10.16555969
 22\C,-6.5277613358,6.5277613358,-10.1655596922\C,6.5277613358,-6.52776
 13358,10.1655596922\C,6.5277613358,6.5277613358,10.1655596922\C,-6.527
 7613358,-6.5277613358,-10.1655596922\C,-6.5277613358,-6.5277613358,10.
 1655596922\C,6.5277613358,6.5277613358,-10.1655596922\C,6.5355168902,2
 .9086619452,6.5355168902\C,-6.5355168902,-2.9086619452,-6.5355168902\C
 ,-6.5355168902,2.9086619452,-6.5355168902\C,6.5355168902,-2.9086619452
 ,6.5355168902\C,-6.5355168902,-2.9086619452,6.5355168902\C,6.535516890
 2,2.9086619452,-6.5355168902\C,6.5355168902,-2.9086619452,-6.535516890
 2\C,-6.5355168902,2.9086619452,6.5355168902\C,6.5355168902,6.535516890
 2,2.9086619452\C,-6.5355168902,-6.5355168902,-2.9086619452\C,-6.535516
 8902,-6.5355168902,2.9086619452\C,6.5355168902,6.5355168902,-2.9086619
 452\C,6.5355168902,-6.5355168902,-2.9086619452\C,-6.5355168902,6.53551
 68902,2.9086619452\C,-6.5355168902,6.5355168902,-2.9086619452\C,6.5355
 168902,-6.5355168902,2.9086619452\C,-2.9086619452,6.5355168902,-6.5355
 168902\C,2.9086619452,-6.5355168902,6.5355168902\C,-2.9086619452,-6.53
 55168902,6.5355168902\C,2.9086619452,6.5355168902,-6.5355168902\C,2.90
 86619452,6.5355168902,6.5355168902\C,-2.9086619452,-6.5355168902,-6.53
 55168902\C,2.9086619452,-6.5355168902,-6.5355168902\C,-2.9086619452,6.
 5355168902,6.5355168902\C,5.6500183357,-12.3732286634,-7.3746307808\C,
 -5.6500183357,12.3732286634,7.3746307808\C,-5.6500183357,-12.373228663
 4,7.3746307808\C,5.6500183357,12.3732286634,-7.3746307808\C,-5.6500183
 357,12.3732286634,-7.3746307808\C,5.6500183357,-12.3732286634,7.374630
 7808\C,5.6500183357,12.3732286634,7.3746307808\C,-5.6500183357,-12.373
 2286634,-7.3746307808\C,12.3732286634,-7.3746307808,-5.6500183357\C,-1
 2.3732286634,7.3746307808,5.6500183357\C,12.3732286634,7.3746307808,5.
 6500183357\C,-12.3732286634,-7.3746307808,-5.6500183357\C,-12.37322866
 34,-7.3746307808,5.6500183357\C,12.3732286634,7.3746307808,-5.65001833
 57\C,-12.3732286634,7.3746307808,-5.6500183357\C,12.3732286634,-7.3746
 307808,5.6500183357\C,7.3746307808,-5.6500183357,-12.3732286634\C,-7.3
 746307808,5.6500183357,12.3732286634\C,-7.3746307808,5.6500183357,-12.
 3732286634\C,7.3746307808,-5.6500183357,12.3732286634\C,7.3746307808,5
 .6500183357,12.3732286634\C,-7.3746307808,-5.6500183357,-12.3732286634
 \C,-7.3746307808,-5.6500183357,12.3732286634\C,7.3746307808,5.65001833
 57,-12.3732286634\C,7.3746307808,12.3732286634,-5.6500183357\C,-7.3746
 307808,-12.3732286634,5.6500183357\C,-7.3746307808,12.3732286634,5.650
 0183357\C,7.3746307808,-12.3732286634,-5.6500183357\C,7.3746307808,-12
 .3732286634,5.6500183357\C,-7.3746307808,12.3732286634,-5.6500183357\C
 ,-7.3746307808,-12.3732286634,-5.6500183357\C,7.3746307808,12.37322866
 34,5.6500183357\C,5.6500183357,7.3746307808,-12.3732286634\C,-5.650018
 3357,-7.3746307808,12.3732286634\C,-5.6500183357,-7.3746307808,-12.373
 2286634\C,5.6500183357,7.3746307808,12.3732286634\C,-5.6500183357,7.37
 46307808,12.3732286634\C,5.6500183357,-7.3746307808,-12.3732286634\C,5
 .6500183357,-7.3746307808,12.3732286634\C,-5.6500183357,7.3746307808,-
 12.3732286634\C,12.3732286634,5.6500183357,-7.3746307808\C,-12.3732286
 634,-5.6500183357,7.3746307808\C,12.3732286634,-5.6500183357,7.3746307
 808\C,-12.3732286634,5.6500183357,-7.3746307808\C,-12.3732286634,-5.65
 00183357,-7.3746307808\C,12.3732286634,5.6500183357,7.3746307808\C,-12
 .3732286634,5.6500183357,7.3746307808\C,12.3732286634,-5.6500183357,-7
 .3746307808\C,5.672832758,0.6990118504,5.672832758\C,-5.672832758,-0.6
 990118504,-5.672832758\C,-5.672832758,0.6990118504,-5.672832758\C,5.67
 2832758,-0.6990118504,5.672832758\C,-5.672832758,-0.6990118504,5.67283
 2758\C,5.672832758,0.6990118504,-5.672832758\C,5.672832758,-0.69901185
 04,-5.672832758\C,-5.672832758,0.6990118504,5.672832758\C,7.3981936551
 ,7.3981936551,0.6989990075\C,-7.3981936551,-7.3981936551,-0.6989990075
 \C,-7.3981936551,-7.3981936551,0.6989990075\C,7.3981936551,7.398193655
 1,-0.6989990075\C,7.3981936551,-7.3981936551,-0.6989990075\C,-7.398193
 6551,7.3981936551,0.6989990075\C,-7.3981936551,7.3981936551,-0.6989990
 075\C,7.3981936551,-7.3981936551,0.6989990075\C,7.3981936551,-0.698999
 0075,7.3981936551\C,-7.3981936551,0.6989990075,-7.3981936551\C,-7.3981
 936551,-0.6989990075,-7.3981936551\C,7.3981936551,0.6989990075,7.39819
 36551\C,7.3981936551,0.6989990075,-7.3981936551\C,-7.3981936551,-0.698
 9990075,7.3981936551\C,-7.3981936551,0.6989990075,7.3981936551\C,7.398
 1936551,-0.6989990075,-7.3981936551\C,5.672832758,-5.672832758,0.69901
 18504\C,-5.672832758,5.672832758,-0.6990118504\C,-5.672832758,5.672832
 758,0.6990118504\C,5.672832758,-5.672832758,-0.6990118504\C,-5.6728327
 58,-5.672832758,-0.6990118504\C,5.672832758,5.672832758,0.6990118504\C
 ,5.672832758,5.672832758,-0.6990118504\C,-5.672832758,-5.672832758,0.6
 990118504\C,-0.6990118504,5.672832758,-5.672832758\C,0.6990118504,-5.6
 72832758,5.672832758\C,-0.6990118504,-5.672832758,5.672832758\C,0.6990
 118504,5.672832758,-5.672832758\C,0.6990118504,5.672832758,5.672832758
 \C,-0.6990118504,-5.672832758,-5.672832758\C,0.6990118504,-5.672832758
 ,-5.672832758\C,-0.6990118504,5.672832758,5.672832758\C,-0.6989990075,
 -7.3981936551,-7.3981936551\C,0.6989990075,7.3981936551,7.3981936551\C
 ,-0.6989990075,7.3981936551,7.3981936551\C,0.6989990075,-7.3981936551,
 -7.3981936551\C,0.6989990075,7.3981936551,-7.3981936551\C,-0.698999007
 5,-7.3981936551,7.3981936551\C,0.6989990075,-7.3981936551,7.3981936551
 \C,-0.6989990075,7.3981936551,-7.3981936551\C,6.5175558426,-11.6653295
 846,-6.5175558426\C,-6.5175558426,11.6653295846,6.5175558426\C,-6.5175
 558426,-11.6653295846,6.5175558426\C,6.5175558426,11.6653295846,-6.517
 5558426\C,-6.5175558426,11.6653295846,-6.5175558426\C,6.5175558426,-11
 .6653295846,6.5175558426\C,6.5175558426,11.6653295846,6.5175558426\C,-
 6.5175558426,-11.6653295846,-6.5175558426\C,11.6653295846,-6.517555842
 6,-6.5175558426\C,-11.6653295846,6.5175558426,6.5175558426\C,11.665329
 5846,6.5175558426,6.5175558426\C,-11.6653295846,-6.5175558426,-6.51755
 58426\C,-11.6653295846,-6.5175558426,6.5175558426\C,11.6653295846,6.51
 75558426,-6.5175558426\C,-11.6653295846,6.5175558426,-6.5175558426\C,1
 1.6653295846,-6.5175558426,6.5175558426\C,6.5175558426,-6.5175558426,-
 11.6653295846\C,-6.5175558426,6.5175558426,11.6653295846\C,-6.51755584
 26,6.5175558426,-11.6653295846\C,6.5175558426,-6.5175558426,11.6653295
 846\C,6.5175558426,6.5175558426,11.6653295846\C,-6.5175558426,-6.51755
 58426,-11.6653295846\C,-6.5175558426,-6.5175558426,11.6653295846\C,6.5
 175558426,6.5175558426,-11.6653295846\C,6.5355051026,1.4067268022,6.53
 55051026\C,-6.5355051026,-1.4067268022,-6.5355051026\C,-6.5355051026,1
 .4067268022,-6.5355051026\C,6.5355051026,-1.4067268022,6.5355051026\C,
 -6.5355051026,-1.4067268022,6.5355051026\C,6.5355051026,1.4067268022,-
 6.5355051026\C,6.5355051026,-1.4067268022,-6.5355051026\C,-6.535505102
 6,1.4067268022,6.5355051026\C,6.5355051026,6.5355051026,1.4067268022\C
 ,-6.5355051026,-6.5355051026,-1.4067268022\C,-6.5355051026,-6.53550510
 26,1.4067268022\C,6.5355051026,6.5355051026,-1.4067268022\C,6.53550510
 26,-6.5355051026,-1.4067268022\C,-6.5355051026,6.5355051026,1.40672680
 22\C,-6.5355051026,6.5355051026,-1.4067268022\C,6.5355051026,-6.535505
 1026,1.4067268022\C,-1.4067268022,6.5355051026,-6.5355051026\C,1.40672
 68022,-6.5355051026,6.5355051026\C,-1.4067268022,-6.5355051026,6.53550
 51026\C,1.4067268022,6.5355051026,-6.5355051026\C,1.4067268022,6.53550
 51026,6.5355051026\C,-1.4067268022,-6.5355051026,-6.5355051026\C,1.406
 7268022,-6.5355051026,-6.5355051026\C,-1.4067268022,6.5355051026,6.535
 5051026\H,4.9894779145,-11.8023121027,-8.0428996613\H,-4.9894779145,11
 .8023121027,8.0428996613\H,-4.9894779145,-11.8023121027,8.0428996613\H
 ,4.9894779145,11.8023121027,-8.0428996613\H,-4.9894779145,11.802312102
 7,-8.0428996613\H,4.9894779145,-11.8023121027,8.0428996613\H,4.9894779
 145,11.8023121027,8.0428996613\H,-4.9894779145,-11.8023121027,-8.04289
 96613\H,11.8023121027,-8.0428996613,-4.9894779145\H,-11.8023121027,8.0
 428996613,4.9894779145\H,11.8023121027,8.0428996613,4.9894779145\H,-11
 .8023121027,-8.0428996613,-4.9894779145\H,-11.8023121027,-8.0428996613
 ,4.9894779145\H,11.8023121027,8.0428996613,-4.9894779145\H,-11.8023121
 027,8.0428996613,-4.9894779145\H,11.8023121027,-8.0428996613,4.9894779
 145\H,8.0428996613,-4.9894779145,-11.8023121027\H,-8.0428996613,4.9894
 779145,11.8023121027\H,-8.0428996613,4.9894779145,-11.8023121027\H,8.0
 428996613,-4.9894779145,11.8023121027\H,8.0428996613,4.9894779145,11.8
 023121027\H,-8.0428996613,-4.9894779145,-11.8023121027\H,-8.0428996613
 ,-4.9894779145,11.8023121027\H,8.0428996613,4.9894779145,-11.802312102
 7\H,8.0428996613,11.8023121027,-4.9894779145\H,-8.0428996613,-11.80231
 21027,4.9894779145\H,-8.0428996613,11.8023121027,4.9894779145\H,8.0428
 996613,-11.8023121027,-4.9894779145\H,8.0428996613,-11.8023121027,4.98
 94779145\H,-8.0428996613,11.8023121027,-4.9894779145\H,-8.0428996613,-
 11.8023121027,-4.9894779145\H,8.0428996613,11.8023121027,4.9894779145\
 H,4.9894779145,8.0428996613,-11.8023121027\H,-4.9894779145,-8.04289966
 13,11.8023121027\H,-4.9894779145,-8.0428996613,-11.8023121027\H,4.9894
 779145,8.0428996613,11.8023121027\H,-4.9894779145,8.0428996613,11.8023
 121027\H,4.9894779145,-8.0428996613,-11.8023121027\H,4.9894779145,-8.0
 428996613,11.8023121027\H,-4.9894779145,8.0428996613,-11.8023121027\H,
 11.8023121027,4.9894779145,-8.0428996613\H,-11.8023121027,-4.989477914
 5,8.0428996613\H,11.8023121027,-4.9894779145,8.0428996613\H,-11.802312
 1027,4.9894779145,-8.0428996613\H,-11.8023121027,-4.9894779145,-8.0428
 996613\H,11.8023121027,4.9894779145,8.0428996613\H,-11.8023121027,4.98
 94779145,8.0428996613\H,11.8023121027,-4.9894779145,-8.0428996613\H,5.
 008105158,1.2687830227,5.008105158\H,-5.008105158,-1.2687830227,-5.008
 105158\H,-5.008105158,1.2687830227,-5.008105158\H,5.008105158,-1.26878
 30227,5.008105158\H,-5.008105158,-1.2687830227,5.008105158\H,5.0081051
 58,1.2687830227,-5.008105158\H,5.008105158,-1.2687830227,-5.008105158\
 H,-5.008105158,1.2687830227,5.008105158\H,8.062780897,8.062780897,1.26
 91392936\H,-8.062780897,-8.062780897,-1.2691392936\H,-8.062780897,-8.0
 62780897,1.2691392936\H,8.062780897,8.062780897,-1.2691392936\H,8.0627
 80897,-8.062780897,-1.2691392936\H,-8.062780897,8.062780897,1.26913929
 36\H,-8.062780897,8.062780897,-1.2691392936\H,8.062780897,-8.062780897
 ,1.2691392936\H,8.062780897,-1.2691392936,8.062780897\H,-8.062780897,1
 .2691392936,-8.062780897\H,-8.062780897,-1.2691392936,-8.062780897\H,8
 .062780897,1.2691392936,8.062780897\H,8.062780897,1.2691392936,-8.0627
 80897\H,-8.062780897,-1.2691392936,8.062780897\H,-8.062780897,1.269139
 2936,8.062780897\H,8.062780897,-1.2691392936,-8.062780897\H,5.00810515
 8,-5.008105158,1.2687830227\H,-5.008105158,5.008105158,-1.2687830227\H
 ,-5.008105158,5.008105158,1.2687830227\H,5.008105158,-5.008105158,-1.2
 687830227\H,-5.008105158,-5.008105158,-1.2687830227\H,5.008105158,5.00
 8105158,1.2687830227\H,5.008105158,5.008105158,-1.2687830227\H,-5.0081
 05158,-5.008105158,1.2687830227\H,-1.2687830227,5.008105158,-5.0081051
 58\H,1.2687830227,-5.008105158,5.008105158\H,-1.2687830227,-5.00810515
 8,5.008105158\H,1.2687830227,5.008105158,-5.008105158\H,1.2687830227,5
 .008105158,5.008105158\H,-1.2687830227,-5.008105158,-5.008105158\H,1.2
 687830227,-5.008105158,-5.008105158\H,-1.2687830227,5.008105158,5.0081
 05158\H,-1.2691392936,-8.062780897,-8.062780897\H,1.2691392936,8.06278
 0897,8.062780897\H,-1.2691392936,8.062780897,8.062780897\H,1.269139293
 6,-8.062780897,-8.062780897\H,1.2691392936,8.062780897,-8.062780897\H,
 -1.2691392936,-8.062780897,8.062780897\H,1.2691392936,-8.062780897,8.0
 62780897\H,-1.2691392936,8.062780897,-8.062780897\C,5.6409291407,-13.7
 742613434,-7.3631390855\C,-5.6409291407,13.7742613434,7.3631390855\C,-
 5.6409291407,-13.7742613434,7.3631390855\C,5.6409291407,13.7742613434,
 -7.3631390855\C,-5.6409291407,13.7742613434,-7.3631390855\C,5.64092914
 07,-13.7742613434,7.3631390855\C,5.6409291407,13.7742613434,7.36313908
 55\C,-5.6409291407,-13.7742613434,-7.3631390855\C,13.7742613434,-7.363
 1390855,-5.6409291407\C,-13.7742613434,7.3631390855,5.6409291407\C,13.
 7742613434,7.3631390855,5.6409291407\C,-13.7742613434,-7.3631390855,-5
 .6409291407\C,-13.7742613434,-7.3631390855,5.6409291407\C,13.774261343
 4,7.3631390855,-5.6409291407\C,-13.7742613434,7.3631390855,-5.64092914
 07\C,13.7742613434,-7.3631390855,5.6409291407\C,7.3631390855,-5.640929
 1407,-13.7742613434\C,-7.3631390855,5.6409291407,13.7742613434\C,-7.36
 31390855,5.6409291407,-13.7742613434\C,7.3631390855,-5.6409291407,13.7
 742613434\C,7.3631390855,5.6409291407,13.7742613434\C,-7.3631390855,-5
 .6409291407,-13.7742613434\C,-7.3631390855,-5.6409291407,13.7742613434
 \C,7.3631390855,5.6409291407,-13.7742613434\C,7.3631390855,13.77426134
 34,-5.6409291407\C,-7.3631390855,-13.7742613434,5.6409291407\C,-7.3631
 390855,13.7742613434,5.6409291407\C,7.3631390855,-13.7742613434,-5.640
 9291407\C,7.3631390855,-13.7742613434,5.6409291407\C,-7.3631390855,13.
 7742613434,-5.6409291407\C,-7.3631390855,-13.7742613434,-5.6409291407\
 C,7.3631390855,13.7742613434,5.6409291407\C,5.6409291407,7.3631390855,
 -13.7742613434\C,-5.6409291407,-7.3631390855,13.7742613434\C,-5.640929
 1407,-7.3631390855,-13.7742613434\C,5.6409291407,7.3631390855,13.77426
 13434\C,-5.6409291407,7.3631390855,13.7742613434\C,5.6409291407,-7.363
 1390855,-13.7742613434\C,5.6409291407,-7.3631390855,13.7742613434\C,-5
 .6409291407,7.3631390855,-13.7742613434\C,13.7742613434,5.6409291407,-
 7.3631390855\C,-13.7742613434,-5.6409291407,7.3631390855\C,13.77426134
 34,-5.6409291407,7.3631390855\C,-13.7742613434,5.6409291407,-7.3631390
 855\C,-13.7742613434,-5.6409291407,-7.3631390855\C,13.7742613434,5.640
 9291407,7.3631390855\C,-13.7742613434,5.6409291407,7.3631390855\C,13.7
 742613434,-5.6409291407,-7.3631390855\C,6.4968812205,-14.4762159599,-6
 .4968812205\H,4.9624459753,-14.324475031,-8.032964125\H,-4.9624459753,
 14.324475031,8.032964125\C,-6.4968812205,14.4762159599,6.4968812205\H,
 -4.9624459753,-14.324475031,8.032964125\C,-6.4968812205,-14.4762159599
 ,6.4968812205\C,6.4968812205,14.4762159599,-6.4968812205\H,4.962445975
 3,14.324475031,-8.032964125\H,-4.9624459753,14.324475031,-8.032964125\
 C,-6.4968812205,14.4762159599,-6.4968812205\C,6.4968812205,-14.4762159
 599,6.4968812205\H,4.9624459753,-14.324475031,8.032964125\C,6.49688122
 05,14.4762159599,6.4968812205\H,4.9624459753,14.324475031,8.032964125\
 H,-4.9624459753,-14.324475031,-8.032964125\C,-6.4968812205,-14.4762159
 599,-6.4968812205\C,14.4762159599,-6.4968812205,-6.4968812205\H,14.324
 475031,-8.032964125,-4.9624459753\H,-14.324475031,8.032964125,4.962445
 9753\C,-14.4762159599,6.4968812205,6.4968812205\H,14.324475031,8.03296
 4125,4.9624459753\C,14.4762159599,6.4968812205,6.4968812205\C,-14.4762
 159599,-6.4968812205,-6.4968812205\H,-14.324475031,-8.032964125,-4.962
 4459753\H,-14.324475031,-8.032964125,4.9624459753\C,-14.4762159599,-6.
 4968812205,6.4968812205\C,14.4762159599,6.4968812205,-6.4968812205\H,1
 4.324475031,8.032964125,-4.9624459753\C,-14.4762159599,6.4968812205,-6
 .4968812205\H,-14.324475031,8.032964125,-4.9624459753\H,14.324475031,-
 8.032964125,4.9624459753\C,14.4762159599,-6.4968812205,6.4968812205\C,
 6.4968812205,-6.4968812205,-14.4762159599\H,8.032964125,-4.9624459753,
 -14.324475031\H,-8.032964125,4.9624459753,14.324475031\C,-6.4968812205
 ,6.4968812205,14.4762159599\H,-8.032964125,4.9624459753,-14.324475031\
 C,-6.4968812205,6.4968812205,-14.4762159599\C,6.4968812205,-6.49688122
 05,14.4762159599\H,8.032964125,-4.9624459753,14.324475031\H,8.03296412
 5,4.9624459753,14.324475031\C,6.4968812205,6.4968812205,14.4762159599\
 C,-6.4968812205,-6.4968812205,-14.4762159599\H,-8.032964125,-4.9624459
 753,-14.324475031\C,-6.4968812205,-6.4968812205,14.4762159599\H,-8.032
 964125,-4.9624459753,14.324475031\H,8.032964125,4.9624459753,-14.32447
 5031\C,6.4968812205,6.4968812205,-14.4762159599\H,8.032964125,14.32447
 5031,-4.9624459753\H,-8.032964125,-14.324475031,4.9624459753\H,-8.0329
 64125,14.324475031,4.9624459753\H,8.032964125,-14.324475031,-4.9624459
 753\H,8.032964125,-14.324475031,4.9624459753\H,-8.032964125,14.3244750
 31,-4.9624459753\H,-8.032964125,-14.324475031,-4.9624459753\H,8.032964
 125,14.324475031,4.9624459753\H,4.9624459753,8.032964125,-14.324475031
 \H,-4.9624459753,-8.032964125,14.324475031\H,-4.9624459753,-8.03296412
 5,-14.324475031\H,4.9624459753,8.032964125,14.324475031\H,-4.962445975
 3,8.032964125,14.324475031\H,4.9624459753,-8.032964125,-14.324475031\H
 ,4.9624459753,-8.032964125,14.324475031\H,-4.9624459753,8.032964125,-1
 4.324475031\H,14.324475031,4.9624459753,-8.032964125\H,-14.324475031,-
 4.9624459753,8.032964125\H,14.324475031,-4.9624459753,8.032964125\H,-1
 4.324475031,4.9624459753,-8.032964125\H,-14.324475031,-4.9624459753,-8
 .032964125\H,14.324475031,4.9624459753,8.032964125\H,-14.324475031,4.9
 624459753,8.032964125\H,14.324475031,-4.9624459753,-8.032964125\H,-15.
 5772796828,-6.4885402512,-6.4885402512\H,15.5772796828,-6.4885402512,-
 6.4885402512\H,6.4885402512,-6.4885402512,-15.5772796828\H,-6.48854025
 12,-6.4885402512,-15.5772796828\H,15.5772796828,6.4885402512,-6.488540
 2512\H,15.5772796828,-6.4885402512,6.4885402512\H,15.5772796828,6.4885
 402512,6.4885402512\H,6.4885402512,-6.4885402512,15.5772796828\H,6.488
 5402512,6.4885402512,15.5772796828\H,-6.4885402512,-6.4885402512,15.57
 72796828\H,-6.4885402512,-15.5772796828,6.4885402512\H,6.4885402512,6.
 4885402512,-15.5772796828\H,-6.4885402512,6.4885402512,-15.5772796828\
 H,-6.4885402512,15.5772796828,-6.4885402512\H,-15.5772796828,6.4885402
 512,6.4885402512\H,-15.5772796828,-6.4885402512,6.4885402512\H,6.48854
 02512,-15.5772796828,6.4885402512\H,-15.5772796828,6.4885402512,-6.488
 5402512\H,-6.4885402512,6.4885402512,15.5772796828\H,-6.4885402512,15.
 5772796828,6.4885402512\H,6.4885402512,15.5772796828,-6.4885402512\H,6
 .4885402512,15.5772796828,6.4885402512\H,-6.4885402512,-15.5772796828,
 -6.4885402512\H,6.4885402512,-15.5772796828,-6.4885402512\\Version=ES6
 4L-G09RevD.01\State=1-A1G\HF=-74880.5782144\RMSD=2.438e-09\RMSF=1.333e
 -06\Dipole=0.,0.,0.\Quadrupole=0.,0.,0.,0.,0.,0.\PG=OH [4C3(O1Zn1.Zn1O
 1),6SGD(C28H12O8Zn4),X(C96H96O48)]\\@


 YE HAVE SOWN MUCH, AND BRING IN LITTLE.
 YE EAT, BUT YE HAVE NOT ENOUGH.
 YE DRINK, BUT YE ARE NOT FILLED WITH DRINK.
 YE CLOTHE YOU, BUT THERE IS NONE WARM.
 AND HE THAT EARNETH WAGES EARNETH WAGES TO PUT
 IT INTO A BAG WITH HOLES.
                                     HAGGAI I,6
 Job cpu time:       8 days 11 hours 17 minutes  6.5 seconds.
 File lengths (MBytes):  RWF=  28940 Int=      0 D2E=      0 Chk=   3228 Scr=      1
 Normal termination of Gaussian 09 at Fri Feb  9 13:14:13 2018.
