'nid11130 nid11131'
 Entering Gaussian System, Link 0=g09
 Initial command:
 /usr/common/software/g09/d1/g09/l1.exe "/global/cscratch1/sd/dgraham/Gau-18499.inp" -scrdir="/global/cscratch1/sd/dgraham/"
 Entering Link 1 = /usr/common/software/g09/d1/g09/l1.exe PID=     18502.
  
 Copyright (c) 1988,1990,1992,1993,1995,1998,2003,2009,2013,
            Gaussian, Inc.  All Rights Reserved.
  
 This is part of the Gaussian(R) 09 program.  It is based on
 the Gaussian(R) 03 system (copyright 2003, Gaussian, Inc.),
 the Gaussian(R) 98 system (copyright 1998, Gaussian, Inc.),
 the Gaussian(R) 94 system (copyright 1995, Gaussian, Inc.),
 the Gaussian 92(TM) system (copyright 1992, Gaussian, Inc.),
 the Gaussian 90(TM) system (copyright 1990, Gaussian, Inc.),
 the Gaussian 88(TM) system (copyright 1988, Gaussian, Inc.),
 the Gaussian 86(TM) system (copyright 1986, Carnegie Mellon
 University), and the Gaussian 82(TM) system (copyright 1983,
 Carnegie Mellon University). Gaussian is a federally registered
 trademark of Gaussian, Inc.
  
 This software contains proprietary and confidential information,
 including trade secrets, belonging to Gaussian, Inc.
  
 This software is provided under written license and may be
 used, copied, transmitted, or stored only in accord with that
 written license.
  
 The following legend is applicable only to US Government
 contracts under FAR:
  
                    RESTRICTED RIGHTS LEGEND
  
 Use, reproduction and disclosure by the US Government is
 subject to restrictions as set forth in subparagraphs (a)
 and (c) of the Commercial Computer Software - Restricted
 Rights clause in FAR 52.227-19.
  
 Gaussian, Inc.
 340 Quinnipiac St., Bldg. 40, Wallingford CT 06492
  
  
 ---------------------------------------------------------------
 Warning -- This program may not be used in any manner that
 competes with the business of Gaussian, Inc. or will provide
 assistance to any competitor of Gaussian, Inc.  The licensee
 of this program is prohibited from giving any competitor of
 Gaussian, Inc. access to this program.  By using this program,
 the user acknowledges that Gaussian, Inc. is engaged in the
 business of creating and licensing software in the field of
 computational chemistry and represents and warrants to the
 licensee that it is not a competitor of Gaussian, Inc. and that
 it will not use this program in any manner prohibited above.
 ---------------------------------------------------------------
  

 Cite this work as:
 Gaussian 09, Revision D.01,
 M. J. Frisch, G. W. Trucks, H. B. Schlegel, G. E. Scuseria, 
 M. A. Robb, J. R. Cheeseman, G. Scalmani, V. Barone, B. Mennucci, 
 G. A. Petersson, H. Nakatsuji, M. Caricato, X. Li, H. P. Hratchian, 
 A. F. Izmaylov, J. Bloino, G. Zheng, J. L. Sonnenberg, M. Hada, 
 M. Ehara, K. Toyota, R. Fukuda, J. Hasegawa, M. Ishida, T. Nakajima, 
 Y. Honda, O. Kitao, H. Nakai, T. Vreven, J. A. Montgomery, Jr., 
 J. E. Peralta, F. Ogliaro, M. Bearpark, J. J. Heyd, E. Brothers, 
 K. N. Kudin, V. N. Staroverov, T. Keith, R. Kobayashi, J. Normand, 
 K. Raghavachari, A. Rendell, J. C. Burant, S. S. Iyengar, J. Tomasi, 
 M. Cossi, N. Rega, J. M. Millam, M. Klene, J. E. Knox, J. B. Cross, 
 V. Bakken, C. Adamo, J. Jaramillo, R. Gomperts, R. E. Stratmann, 
 O. Yazyev, A. J. Austin, R. Cammi, C. Pomelli, J. W. Ochterski, 
 R. L. Martin, K. Morokuma, V. G. Zakrzewski, G. A. Voth, 
 P. Salvador, J. J. Dannenberg, S. Dapprich, A. D. Daniels, 
 O. Farkas, J. B. Foresman, J. V. Ortiz, J. Cioslowski, 
 and D. J. Fox, Gaussian, Inc., Wallingford CT, 2013.
 
 ******************************************
 Gaussian 09:  ES64L-G09RevD.01 24-Apr-2013
                 2-Feb-2018 
 ******************************************
 %mem=80gb
 %NProcShared=68
 Will use up to   68 processors via shared memory.
 %NProcLinda=2
 Will use up to    2 processors via Linda.
 %chk=mof5_node.chk
 ----------------------------------------------------------------------
 # opt Integral(superfinegrid) pbepbe/def2svp geom=connectivity Empiric
 alDispersion=GD3
 ----------------------------------------------------------------------
 1/14=-1,18=20,19=15,26=5,38=1,57=2/1,3;
 2/9=110,12=2,17=6,18=5,40=1/2;
 3/5=43,7=101,11=2,16=1,25=1,30=1,71=1,74=1009,75=-7,124=31/1,2,3;
 4//1;
 5/5=2,38=5/2;
 6/7=2,8=2,9=2,10=2,28=1/1;
 7//1,2,3,16;
 1/14=-1,18=20,19=15,26=5/3(2);
 2/9=110/2;
 99//99;
 2/9=110/2;
 3/5=43,7=101,11=2,16=1,25=1,30=1,71=1,74=1009,75=-7,124=31/1,2,3;
 4/5=5,16=3,69=1/1;
 5/5=2,38=5/2;
 7//1,2,3,16;
 1/14=-1,18=20,19=15,26=5/3(-5);
 2/9=110/2;
 6/7=2,8=2,9=2,10=2,19=2,28=1/1;
 99/9=1/99;
 -----------------------
 MOF-5 Node Optimization
 -----------------------
 Symbolic Z-matrix:
 Charge =  0 Multiplicity = 1
 O                    -0.00498   0.00049   0.01196 
 Zn                    1.40008   0.29644   1.31616 
 Zn                   -0.91067  -1.6815    0.37517 
 Zn                   -1.29487   1.47001   0.09578 
 Zn                    0.76533  -0.07092  -1.77693 
 O                    -0.83749  -2.89042  -1.158 
 O                    -3.0547    0.81675   0.64334 
 O                    -1.48907   2.32625  -1.64977 
 O                    -0.13848   1.1574   -2.99624 
 O                     2.6656    0.39209  -1.73624 
 O                     0.63896  -1.88582  -2.50268 
 O                    -0.06154  -2.6093    1.87124 
 O                    -2.79024  -1.39663   0.82114 
 O                    -0.73517   2.83065   1.37731 
 O                     1.51611  -1.18867   2.57975 
 O                     3.13924   0.49346   0.44771 
 O                     1.06958   1.92937   2.3423 
 C                     0.86631  -2.26247   2.64342 
 C                     3.45296   0.54014  -0.76844 
 C                    -0.10449  -2.84537  -2.17647 
 C                    -0.98148   2.06115  -2.76765 
 C                     0.20468   2.83048   2.21139 
 C                    -3.4733   -0.34405   0.87718 
 C                     2.25414  -2.90662   4.61799 
 C                     2.58434  -3.79118   5.62738 
 C                     1.89099  -4.98359   5.75764 
 C                     0.86715  -5.29228   4.8766 
 C                     0.53571  -4.40905   3.86687 
 C                     1.2273   -3.21133   3.73202 
 H                     2.78565  -1.97076   4.50158 
 H                     3.38516  -3.55083   6.31655 
 H                     0.32578  -6.22554   4.97841 
 H                    -0.26212  -4.63368   3.17028 
 H                     2.14959  -5.67619   6.55053 
 C                    -0.51898   6.13674   3.86001 
 C                    -0.6361    5.02642   3.04569 
 C                     0.3094    4.01002   3.11153 
 C                     1.37048   4.11423   4.00281 
 C                     1.4864    5.22566   4.81639 
 C                     0.54338   6.23847   4.74343 
 H                    -1.25623   6.92888   3.80367 
 H                    -1.45689   4.93312   2.34592 
 H                     2.10113   3.31598   4.03976 
 H                     2.31792   5.30635   5.5066 
 H                     0.63709   7.11162   5.37886 
 C                     4.8831    0.79617  -1.0872 
 C                     5.8093    0.9547   -0.06342 
 C                     7.13664   1.19828  -0.35986 
 C                     7.54621   1.28563  -1.68067 
 C                     6.62652   1.12825  -2.70526 
 C                     5.29869   0.88404  -2.41045 
 H                     5.47231   0.88523   0.96343 
 H                     7.85608   1.3214    0.44103 
 H                     8.58754   1.47696  -1.9129 
 H                     6.94742   1.19582  -3.73828 
 H                     4.56523   0.75987  -3.1974 
 C                    -0.90807  -6.2301   -3.61563 
 C                    -0.91366  -5.1252   -2.78546 
 C                    -0.10643  -4.03151  -3.07429 
 C                     0.70433  -4.05424  -4.20251 
 C                     0.71036  -5.16085  -5.0305 
 C                    -0.09504  -6.24889  -4.73795 
 H                    -1.53818  -7.08169  -3.38698 
 H                    -1.54093  -5.09276  -1.9034 
 H                     1.33026  -3.19647  -4.4144 
 H                     1.34528  -5.17636  -5.90842 
 H                    -0.09029  -7.11623  -5.38813 
 C                    -1.25444   3.48775  -6.24189 
 C                    -0.86018   2.69891  -5.17757 
 C                    -1.40973   2.90245  -3.91784 
 C                    -2.35784   3.90186  -3.73456 
 C                    -2.7529    4.68762  -4.80058 
 C                    -2.20109   4.48204  -6.05451 
 H                    -0.82309   3.32708  -7.2229 
 H                    -0.12126   1.918    -5.30616 
 H                    -2.7749    4.0531   -2.74687 
 H                    -3.49267   5.46574  -4.65421 
 H                    -2.51151   5.09892  -6.89009 
 C                    -7.05951   0.49731   1.65781 
 C                    -7.58238  -0.75819   1.92219 
 C                    -6.77006  -1.87807   1.85004 
 C                    -5.4362   -1.74374   1.51319 
 C                    -4.90752  -0.48681   1.24633 
 C                    -5.72625   0.63351   1.31929 
 H                    -7.69534   1.37303   1.71429 
 H                    -8.62842  -0.86418   2.18587 
 H                    -7.17949  -2.85986   2.05653 
 H                    -4.78784  -2.60892   1.45085 
 H                    -5.30248   1.60703   1.10724 
 

 GradGradGradGradGradGradGradGradGradGradGradGradGradGradGradGradGradGrad
 Berny optimization.
 Initialization pass.
                           ----------------------------
                           !    Initial Parameters    !
                           ! (Angstroms and Degrees)  !
 --------------------------                            --------------------------
 ! Name  Definition              Value          Derivative Info.                !
 --------------------------------------------------------------------------------
 ! R1    R(1,2)                  1.9398         estimate D2E/DX2                !
 ! R2    R(1,3)                  1.9446         estimate D2E/DX2                !
 ! R3    R(1,4)                  1.9571         estimate D2E/DX2                !
 ! R4    R(1,5)                  1.949          estimate D2E/DX2                !
 ! R5    R(2,15)                 1.9534         estimate D2E/DX2                !
 ! R6    R(2,16)                 1.9539         estimate D2E/DX2                !
 ! R7    R(2,17)                 1.9567         estimate D2E/DX2                !
 ! R8    R(3,6)                  1.9538         estimate D2E/DX2                !
 ! R9    R(3,12)                 1.9545         estimate D2E/DX2                !
 ! R10   R(3,13)                 1.9527         estimate D2E/DX2                !
 ! R11   R(4,7)                  1.9554         estimate D2E/DX2                !
 ! R12   R(4,8)                  1.9539         estimate D2E/DX2                !
 ! R13   R(4,14)                 1.9511         estimate D2E/DX2                !
 ! R14   R(5,9)                  1.9525         estimate D2E/DX2                !
 ! R15   R(5,10)                 1.9563         estimate D2E/DX2                !
 ! R16   R(5,11)                 1.9587         estimate D2E/DX2                !
 ! R17   R(6,20)                 1.2556         estimate D2E/DX2                !
 ! R18   R(7,23)                 1.2559         estimate D2E/DX2                !
 ! R19   R(8,21)                 1.256          estimate D2E/DX2                !
 ! R20   R(9,21)                 1.2569         estimate D2E/DX2                !
 ! R21   R(10,19)                1.2564         estimate D2E/DX2                !
 ! R22   R(11,20)                1.2569         estimate D2E/DX2                !
 ! R23   R(12,18)                1.256          estimate D2E/DX2                !
 ! R24   R(13,23)                1.256          estimate D2E/DX2                !
 ! R25   R(14,22)                1.2566         estimate D2E/DX2                !
 ! R26   R(15,18)                1.2567         estimate D2E/DX2                !
 ! R27   R(16,19)                1.2568         estimate D2E/DX2                !
 ! R28   R(17,22)                1.2559         estimate D2E/DX2                !
 ! R29   R(18,29)                1.4885         estimate D2E/DX2                !
 ! R30   R(19,46)                1.4874         estimate D2E/DX2                !
 ! R31   R(20,59)                1.4876         estimate D2E/DX2                !
 ! R32   R(21,70)                1.488          estimate D2E/DX2                !
 ! R33   R(22,37)                1.4875         estimate D2E/DX2                !
 ! R34   R(23,83)                1.4878         estimate D2E/DX2                !
 ! R35   R(24,25)                1.3822         estimate D2E/DX2                !
 ! R36   R(24,29)                1.39           estimate D2E/DX2                !
 ! R37   R(24,30)                1.0825         estimate D2E/DX2                !
 ! R38   R(25,26)                1.3855         estimate D2E/DX2                !
 ! R39   R(25,31)                1.0835         estimate D2E/DX2                !
 ! R40   R(26,27)                1.3856         estimate D2E/DX2                !
 ! R41   R(26,34)                1.0841         estimate D2E/DX2                !
 ! R42   R(27,28)                1.3818         estimate D2E/DX2                !
 ! R43   R(27,32)                1.0837         estimate D2E/DX2                !
 ! R44   R(28,29)                1.3896         estimate D2E/DX2                !
 ! R45   R(28,33)                1.0827         estimate D2E/DX2                !
 ! R46   R(35,36)                1.3819         estimate D2E/DX2                !
 ! R47   R(35,40)                1.3854         estimate D2E/DX2                !
 ! R48   R(35,41)                1.0836         estimate D2E/DX2                !
 ! R49   R(36,37)                1.3897         estimate D2E/DX2                !
 ! R50   R(36,42)                1.0826         estimate D2E/DX2                !
 ! R51   R(37,38)                1.3897         estimate D2E/DX2                !
 ! R52   R(38,39)                1.3823         estimate D2E/DX2                !
 ! R53   R(38,43)                1.0828         estimate D2E/DX2                !
 ! R54   R(39,40)                1.3858         estimate D2E/DX2                !
 ! R55   R(39,44)                1.0837         estimate D2E/DX2                !
 ! R56   R(40,45)                1.084          estimate D2E/DX2                !
 ! R57   R(46,47)                1.3896         estimate D2E/DX2                !
 ! R58   R(46,51)                1.3898         estimate D2E/DX2                !
 ! R59   R(47,48)                1.3817         estimate D2E/DX2                !
 ! R60   R(47,52)                1.083          estimate D2E/DX2                !
 ! R61   R(48,49)                1.3856         estimate D2E/DX2                !
 ! R62   R(48,53)                1.0836         estimate D2E/DX2                !
 ! R63   R(49,50)                1.3858         estimate D2E/DX2                !
 ! R64   R(49,54)                1.0839         estimate D2E/DX2                !
 ! R65   R(50,51)                1.3819         estimate D2E/DX2                !
 ! R66   R(50,55)                1.0838         estimate D2E/DX2                !
 ! R67   R(51,56)                1.0829         estimate D2E/DX2                !
 ! R68   R(57,58)                1.382          estimate D2E/DX2                !
 ! R69   R(57,62)                1.386          estimate D2E/DX2                !
 ! R70   R(57,63)                1.0838         estimate D2E/DX2                !
 ! R71   R(58,59)                1.3897         estimate D2E/DX2                !
 ! R72   R(58,64)                1.0828         estimate D2E/DX2                !
 ! R73   R(59,60)                1.3895         estimate D2E/DX2                !
 ! R74   R(60,61)                1.3821         estimate D2E/DX2                !
 ! R75   R(60,65)                1.0828         estimate D2E/DX2                !
 ! R76   R(61,62)                1.3849         estimate D2E/DX2                !
 ! R77   R(61,66)                1.0836         estimate D2E/DX2                !
 ! R78   R(62,67)                1.084          estimate D2E/DX2                !
 ! R79   R(68,69)                1.3822         estimate D2E/DX2                !
 ! R80   R(68,73)                1.3856         estimate D2E/DX2                !
 ! R81   R(68,74)                1.0836         estimate D2E/DX2                !
 ! R82   R(69,70)                1.3894         estimate D2E/DX2                !
 ! R83   R(69,75)                1.0828         estimate D2E/DX2                !
 ! R84   R(70,71)                1.3897         estimate D2E/DX2                !
 ! R85   R(71,72)                1.382          estimate D2E/DX2                !
 ! R86   R(71,76)                1.0827         estimate D2E/DX2                !
 ! R87   R(72,73)                1.3853         estimate D2E/DX2                !
 ! R88   R(72,77)                1.0836         estimate D2E/DX2                !
 ! R89   R(73,78)                1.084          estimate D2E/DX2                !
 ! R90   R(79,80)                1.3855         estimate D2E/DX2                !
 ! R91   R(79,84)                1.3823         estimate D2E/DX2                !
 ! R92   R(79,85)                1.0837         estimate D2E/DX2                !
 ! R93   R(80,81)                1.3854         estimate D2E/DX2                !
 ! R94   R(80,86)                1.084          estimate D2E/DX2                !
 ! R95   R(81,82)                1.3823         estimate D2E/DX2                !
 ! R96   R(81,87)                1.0836         estimate D2E/DX2                !
 ! R97   R(82,83)                1.3895         estimate D2E/DX2                !
 ! R98   R(82,88)                1.083          estimate D2E/DX2                !
 ! R99   R(83,84)                1.3895         estimate D2E/DX2                !
 ! R100  R(84,89)                1.0827         estimate D2E/DX2                !
 ! A1    A(2,1,3)              110.1058         estimate D2E/DX2                !
 ! A2    A(2,1,4)              109.5147         estimate D2E/DX2                !
 ! A3    A(2,1,5)              109.6589         estimate D2E/DX2                !
 ! A4    A(3,1,4)              109.5423         estimate D2E/DX2                !
 ! A5    A(3,1,5)              108.8943         estimate D2E/DX2                !
 ! A6    A(4,1,5)              109.1055         estimate D2E/DX2                !
 ! A7    A(1,2,15)             111.2204         estimate D2E/DX2                !
 ! A8    A(1,2,16)             111.1791         estimate D2E/DX2                !
 ! A9    A(1,2,17)             110.951          estimate D2E/DX2                !
 ! A10   A(15,2,16)            108.138          estimate D2E/DX2                !
 ! A11   A(15,2,17)            107.7749         estimate D2E/DX2                !
 ! A12   A(16,2,17)            107.4148         estimate D2E/DX2                !
 ! A13   A(1,3,6)              111.7889         estimate D2E/DX2                !
 ! A14   A(1,3,12)             110.5624         estimate D2E/DX2                !
 ! A15   A(1,3,13)             111.3948         estimate D2E/DX2                !
 ! A16   A(6,3,12)             106.8976         estimate D2E/DX2                !
 ! A17   A(6,3,13)             107.7909         estimate D2E/DX2                !
 ! A18   A(12,3,13)            108.2171         estimate D2E/DX2                !
 ! A19   A(1,4,7)              110.751          estimate D2E/DX2                !
 ! A20   A(1,4,8)              110.8721         estimate D2E/DX2                !
 ! A21   A(1,4,14)             111.2649         estimate D2E/DX2                !
 ! A22   A(7,4,8)              107.8855         estimate D2E/DX2                !
 ! A23   A(7,4,14)             107.8919         estimate D2E/DX2                !
 ! A24   A(8,4,14)             108.0401         estimate D2E/DX2                !
 ! A25   A(1,5,9)              111.5416         estimate D2E/DX2                !
 ! A26   A(1,5,10)             110.8637         estimate D2E/DX2                !
 ! A27   A(1,5,11)             110.398          estimate D2E/DX2                !
 ! A28   A(9,5,10)             108.2844         estimate D2E/DX2                !
 ! A29   A(9,5,11)             108.7632         estimate D2E/DX2                !
 ! A30   A(10,5,11)            106.8388         estimate D2E/DX2                !
 ! A31   A(3,6,20)             129.5058         estimate D2E/DX2                !
 ! A32   A(4,7,23)             131.3671         estimate D2E/DX2                !
 ! A33   A(4,8,21)             131.4867         estimate D2E/DX2                !
 ! A34   A(5,9,21)             130.4853         estimate D2E/DX2                !
 ! A35   A(5,10,19)            130.7423         estimate D2E/DX2                !
 ! A36   A(5,11,20)            130.4931         estimate D2E/DX2                !
 ! A37   A(3,12,18)            131.3355         estimate D2E/DX2                !
 ! A38   A(3,13,23)            130.9895         estimate D2E/DX2                !
 ! A39   A(4,14,22)            130.5743         estimate D2E/DX2                !
 ! A40   A(2,15,18)            130.6681         estimate D2E/DX2                !
 ! A41   A(2,16,19)            130.9963         estimate D2E/DX2                !
 ! A42   A(2,17,22)            131.335          estimate D2E/DX2                !
 ! A43   A(12,18,15)           125.9294         estimate D2E/DX2                !
 ! A44   A(12,18,29)           116.921          estimate D2E/DX2                !
 ! A45   A(15,18,29)           117.1497         estimate D2E/DX2                !
 ! A46   A(10,19,16)           125.7727         estimate D2E/DX2                !
 ! A47   A(10,19,46)           117.2422         estimate D2E/DX2                !
 ! A48   A(16,19,46)           116.985          estimate D2E/DX2                !
 ! A49   A(6,20,11)            125.6753         estimate D2E/DX2                !
 ! A50   A(6,20,59)            117.3979         estimate D2E/DX2                !
 ! A51   A(11,20,59)           116.9258         estimate D2E/DX2                !
 ! A52   A(8,21,9)             125.7819         estimate D2E/DX2                !
 ! A53   A(8,21,70)            116.8927         estimate D2E/DX2                !
 ! A54   A(9,21,70)            117.3228         estimate D2E/DX2                !
 ! A55   A(14,22,17)           125.7594         estimate D2E/DX2                !
 ! A56   A(14,22,37)           117.0157         estimate D2E/DX2                !
 ! A57   A(17,22,37)           117.221          estimate D2E/DX2                !
 ! A58   A(7,23,13)            125.8009         estimate D2E/DX2                !
 ! A59   A(7,23,83)            117.1402         estimate D2E/DX2                !
 ! A60   A(13,23,83)           117.0581         estimate D2E/DX2                !
 ! A61   A(25,24,29)           120.1102         estimate D2E/DX2                !
 ! A62   A(25,24,30)           120.9648         estimate D2E/DX2                !
 ! A63   A(29,24,30)           118.9251         estimate D2E/DX2                !
 ! A64   A(24,25,26)           119.9939         estimate D2E/DX2                !
 ! A65   A(24,25,31)           119.9405         estimate D2E/DX2                !
 ! A66   A(26,25,31)           120.0656         estimate D2E/DX2                !
 ! A67   A(25,26,27)           120.1166         estimate D2E/DX2                !
 ! A68   A(25,26,34)           119.9492         estimate D2E/DX2                !
 ! A69   A(27,26,34)           119.9342         estimate D2E/DX2                !
 ! A70   A(26,27,28)           119.9653         estimate D2E/DX2                !
 ! A71   A(26,27,32)           120.083          estimate D2E/DX2                !
 ! A72   A(28,27,32)           119.9516         estimate D2E/DX2                !
 ! A73   A(27,28,29)           120.1618         estimate D2E/DX2                !
 ! A74   A(27,28,33)           120.9481         estimate D2E/DX2                !
 ! A75   A(29,28,33)           118.8901         estimate D2E/DX2                !
 ! A76   A(18,29,24)           120.368          estimate D2E/DX2                !
 ! A77   A(18,29,28)           119.9797         estimate D2E/DX2                !
 ! A78   A(24,29,28)           119.6523         estimate D2E/DX2                !
 ! A79   A(36,35,40)           119.983          estimate D2E/DX2                !
 ! A80   A(36,35,41)           119.9374         estimate D2E/DX2                !
 ! A81   A(40,35,41)           120.0791         estimate D2E/DX2                !
 ! A82   A(35,36,37)           120.1357         estimate D2E/DX2                !
 ! A83   A(35,36,42)           120.9562         estimate D2E/DX2                !
 ! A84   A(37,36,42)           118.9075         estimate D2E/DX2                !
 ! A85   A(22,37,36)           120.2248         estimate D2E/DX2                !
 ! A86   A(22,37,38)           120.0894         estimate D2E/DX2                !
 ! A87   A(36,37,38)           119.6713         estimate D2E/DX2                !
 ! A88   A(37,38,39)           120.1215         estimate D2E/DX2                !
 ! A89   A(37,38,43)           118.8057         estimate D2E/DX2                !
 ! A90   A(39,38,43)           121.0713         estimate D2E/DX2                !
 ! A91   A(38,39,40)           119.9737         estimate D2E/DX2                !
 ! A92   A(38,39,44)           119.9412         estimate D2E/DX2                !
 ! A93   A(40,39,44)           120.0842         estimate D2E/DX2                !
 ! A94   A(35,40,39)           120.114          estimate D2E/DX2                !
 ! A95   A(35,40,45)           119.9502         estimate D2E/DX2                !
 ! A96   A(39,40,45)           119.9358         estimate D2E/DX2                !
 ! A97   A(19,46,47)           120.1716         estimate D2E/DX2                !
 ! A98   A(19,46,51)           120.1623         estimate D2E/DX2                !
 ! A99   A(47,46,51)           119.6655         estimate D2E/DX2                !
 ! A100  A(46,47,48)           120.1551         estimate D2E/DX2                !
 ! A101  A(46,47,52)           118.9356         estimate D2E/DX2                !
 ! A102  A(48,47,52)           120.9092         estimate D2E/DX2                !
 ! A103  A(47,48,49)           119.9731         estimate D2E/DX2                !
 ! A104  A(47,48,53)           119.9526         estimate D2E/DX2                !
 ! A105  A(49,48,53)           120.0743         estimate D2E/DX2                !
 ! A106  A(48,49,50)           120.0964         estimate D2E/DX2                !
 ! A107  A(48,49,54)           119.9551         estimate D2E/DX2                !
 ! A108  A(50,49,54)           119.9485         estimate D2E/DX2                !
 ! A109  A(49,50,51)           120.0016         estimate D2E/DX2                !
 ! A110  A(49,50,55)           120.0748         estimate D2E/DX2                !
 ! A111  A(51,50,55)           119.9236         estimate D2E/DX2                !
 ! A112  A(46,51,50)           120.1083         estimate D2E/DX2                !
 ! A113  A(46,51,56)           118.8245         estimate D2E/DX2                !
 ! A114  A(50,51,56)           121.0671         estimate D2E/DX2                !
 ! A115  A(58,57,62)           119.9753         estimate D2E/DX2                !
 ! A116  A(58,57,63)           119.9417         estimate D2E/DX2                !
 ! A117  A(62,57,63)           120.0829         estimate D2E/DX2                !
 ! A118  A(57,58,59)           120.1322         estimate D2E/DX2                !
 ! A119  A(57,58,64)           121.0377         estimate D2E/DX2                !
 ! A120  A(59,58,64)           118.8301         estimate D2E/DX2                !
 ! A121  A(20,59,58)           120.188          estimate D2E/DX2                !
 ! A122  A(20,59,60)           120.1539         estimate D2E/DX2                !
 ! A123  A(58,59,60)           119.6573         estimate D2E/DX2                !
 ! A124  A(59,60,61)           120.1375         estimate D2E/DX2                !
 ! A125  A(59,60,65)           118.8961         estimate D2E/DX2                !
 ! A126  A(61,60,65)           120.9654         estimate D2E/DX2                !
 ! A127  A(60,61,62)           119.9962         estimate D2E/DX2                !
 ! A128  A(60,61,66)           119.9606         estimate D2E/DX2                !
 ! A129  A(62,61,66)           120.0432         estimate D2E/DX2                !
 ! A130  A(57,62,61)           120.1012         estimate D2E/DX2                !
 ! A131  A(57,62,67)           119.9411         estimate D2E/DX2                !
 ! A132  A(61,62,67)           119.9577         estimate D2E/DX2                !
 ! A133  A(69,68,73)           120.0189         estimate D2E/DX2                !
 ! A134  A(69,68,74)           119.9299         estimate D2E/DX2                !
 ! A135  A(73,68,74)           120.0512         estimate D2E/DX2                !
 ! A136  A(68,69,70)           120.115          estimate D2E/DX2                !
 ! A137  A(68,69,75)           120.9853         estimate D2E/DX2                !
 ! A138  A(70,69,75)           118.8994         estimate D2E/DX2                !
 ! A139  A(21,70,69)           120.2775         estimate D2E/DX2                !
 ! A140  A(21,70,71)           120.0669         estimate D2E/DX2                !
 ! A141  A(69,70,71)           119.6548         estimate D2E/DX2                !
 ! A142  A(70,71,72)           120.1447         estimate D2E/DX2                !
 ! A143  A(70,71,76)           118.9163         estimate D2E/DX2                !
 ! A144  A(72,71,76)           120.9386         estimate D2E/DX2                !
 ! A145  A(71,72,73)           119.9977         estimate D2E/DX2                !
 ! A146  A(71,72,77)           119.9511         estimate D2E/DX2                !
 ! A147  A(73,72,77)           120.0511         estimate D2E/DX2                !
 ! A148  A(68,73,72)           120.0687         estimate D2E/DX2                !
 ! A149  A(68,73,78)           119.9844         estimate D2E/DX2                !
 ! A150  A(72,73,78)           119.9468         estimate D2E/DX2                !
 ! A151  A(80,79,84)           120.0017         estimate D2E/DX2                !
 ! A152  A(80,79,85)           120.0601         estimate D2E/DX2                !
 ! A153  A(84,79,85)           119.9381         estimate D2E/DX2                !
 ! A154  A(79,80,81)           120.0859         estimate D2E/DX2                !
 ! A155  A(79,80,86)           119.9483         estimate D2E/DX2                !
 ! A156  A(81,80,86)           119.9658         estimate D2E/DX2                !
 ! A157  A(80,81,82)           119.9975         estimate D2E/DX2                !
 ! A158  A(80,81,87)           120.0622         estimate D2E/DX2                !
 ! A159  A(82,81,87)           119.9403         estimate D2E/DX2                !
 ! A160  A(81,82,83)           120.1244         estimate D2E/DX2                !
 ! A161  A(81,82,88)           120.938          estimate D2E/DX2                !
 ! A162  A(83,82,88)           118.9375         estimate D2E/DX2                !
 ! A163  A(23,83,82)           120.0815         estimate D2E/DX2                !
 ! A164  A(23,83,84)           120.2423         estimate D2E/DX2                !
 ! A165  A(82,83,84)           119.6753         estimate D2E/DX2                !
 ! A166  A(79,84,83)           120.1151         estimate D2E/DX2                !
 ! A167  A(79,84,89)           120.9351         estimate D2E/DX2                !
 ! A168  A(83,84,89)           118.9498         estimate D2E/DX2                !
 ! D1    D(3,1,2,15)             1.1686         estimate D2E/DX2                !
 ! D2    D(3,1,2,16)           121.738          estimate D2E/DX2                !
 ! D3    D(3,1,2,17)          -118.7873         estimate D2E/DX2                !
 ! D4    D(4,1,2,15)           121.6763         estimate D2E/DX2                !
 ! D5    D(4,1,2,16)          -117.7543         estimate D2E/DX2                !
 ! D6    D(4,1,2,17)             1.7204         estimate D2E/DX2                !
 ! D7    D(5,1,2,15)          -118.6302         estimate D2E/DX2                !
 ! D8    D(5,1,2,16)             1.9392         estimate D2E/DX2                !
 ! D9    D(5,1,2,17)           121.4139         estimate D2E/DX2                !
 ! D10   D(2,1,3,6)           -122.4029         estimate D2E/DX2                !
 ! D11   D(2,1,3,12)            -3.4376         estimate D2E/DX2                !
 ! D12   D(2,1,3,13)           116.9319         estimate D2E/DX2                !
 ! D13   D(4,1,3,6)            117.106          estimate D2E/DX2                !
 ! D14   D(4,1,3,12)          -123.9287         estimate D2E/DX2                !
 ! D15   D(4,1,3,13)            -3.5592         estimate D2E/DX2                !
 ! D16   D(5,1,3,6)             -2.1415         estimate D2E/DX2                !
 ! D17   D(5,1,3,12)           116.8238         estimate D2E/DX2                !
 ! D18   D(5,1,3,13)          -122.8068         estimate D2E/DX2                !
 ! D19   D(2,1,4,7)           -116.7148         estimate D2E/DX2                !
 ! D20   D(2,1,4,8)            123.5524         estimate D2E/DX2                !
 ! D21   D(2,1,4,14)             3.2846         estimate D2E/DX2                !
 ! D22   D(3,1,4,7)              4.1353         estimate D2E/DX2                !
 ! D23   D(3,1,4,8)           -115.5975         estimate D2E/DX2                !
 ! D24   D(3,1,4,14)           124.1347         estimate D2E/DX2                !
 ! D25   D(5,1,4,7)            123.2526         estimate D2E/DX2                !
 ! D26   D(5,1,4,8)              3.5198         estimate D2E/DX2                !
 ! D27   D(5,1,4,14)          -116.748          estimate D2E/DX2                !
 ! D28   D(2,1,5,9)           -127.6995         estimate D2E/DX2                !
 ! D29   D(2,1,5,10)            -6.9413         estimate D2E/DX2                !
 ! D30   D(2,1,5,11)           111.2538         estimate D2E/DX2                !
 ! D31   D(3,1,5,9)            111.7636         estimate D2E/DX2                !
 ! D32   D(3,1,5,10)          -127.4782         estimate D2E/DX2                !
 ! D33   D(3,1,5,11)            -9.2831         estimate D2E/DX2                !
 ! D34   D(4,1,5,9)             -7.7559         estimate D2E/DX2                !
 ! D35   D(4,1,5,10)           113.0023         estimate D2E/DX2                !
 ! D36   D(4,1,5,11)          -128.8026         estimate D2E/DX2                !
 ! D37   D(1,2,15,18)            1.8267         estimate D2E/DX2                !
 ! D38   D(16,2,15,18)        -120.5188         estimate D2E/DX2                !
 ! D39   D(17,2,15,18)         123.6487         estimate D2E/DX2                !
 ! D40   D(1,2,16,19)            4.9782         estimate D2E/DX2                !
 ! D41   D(15,2,16,19)         127.349          estimate D2E/DX2                !
 ! D42   D(17,2,16,19)        -116.5839         estimate D2E/DX2                !
 ! D43   D(1,2,17,22)           -7.2442         estimate D2E/DX2                !
 ! D44   D(15,2,17,22)        -129.2331         estimate D2E/DX2                !
 ! D45   D(16,2,17,22)         114.4605         estimate D2E/DX2                !
 ! D46   D(1,3,6,20)            15.4456         estimate D2E/DX2                !
 ! D47   D(12,3,6,20)         -105.669          estimate D2E/DX2                !
 ! D48   D(13,3,6,20)          138.188          estimate D2E/DX2                !
 ! D49   D(1,3,12,18)            5.2392         estimate D2E/DX2                !
 ! D50   D(6,3,12,18)          127.1291         estimate D2E/DX2                !
 ! D51   D(13,3,12,18)        -117.012          estimate D2E/DX2                !
 ! D52   D(1,3,13,23)            1.6758         estimate D2E/DX2                !
 ! D53   D(6,3,13,23)         -121.308          estimate D2E/DX2                !
 ! D54   D(12,3,13,23)         123.4162         estimate D2E/DX2                !
 ! D55   D(1,4,7,23)            -3.5121         estimate D2E/DX2                !
 ! D56   D(8,4,7,23)           117.9958         estimate D2E/DX2                !
 ! D57   D(14,4,7,23)         -125.5086         estimate D2E/DX2                !
 ! D58   D(1,4,8,21)             3.0416         estimate D2E/DX2                !
 ! D59   D(7,4,8,21)          -118.3911         estimate D2E/DX2                !
 ! D60   D(14,4,8,21)          125.2099         estimate D2E/DX2                !
 ! D61   D(1,4,14,22)           -8.2513         estimate D2E/DX2                !
 ! D62   D(7,4,14,22)          113.4274         estimate D2E/DX2                !
 ! D63   D(8,4,14,22)         -130.1778         estimate D2E/DX2                !
 ! D64   D(1,5,9,21)             9.9693         estimate D2E/DX2                !
 ! D65   D(10,5,9,21)         -112.2853         estimate D2E/DX2                !
 ! D66   D(11,5,9,21)          131.9642         estimate D2E/DX2                !
 ! D67   D(1,5,10,19)           10.5071         estimate D2E/DX2                !
 ! D68   D(9,5,10,19)          133.175          estimate D2E/DX2                !
 ! D69   D(11,5,10,19)        -109.8282         estimate D2E/DX2                !
 ! D70   D(1,5,11,20)           19.8759         estimate D2E/DX2                !
 ! D71   D(9,5,11,20)         -102.8112         estimate D2E/DX2                !
 ! D72   D(10,5,11,20)         140.5091         estimate D2E/DX2                !
 ! D73   D(3,6,20,11)           -9.8391         estimate D2E/DX2                !
 ! D74   D(3,6,20,59)          169.7813         estimate D2E/DX2                !
 ! D75   D(4,7,23,13)            1.1836         estimate D2E/DX2                !
 ! D76   D(4,7,23,83)         -178.4644         estimate D2E/DX2                !
 ! D77   D(4,8,21,9)            -3.4401         estimate D2E/DX2                !
 ! D78   D(4,8,21,70)          177.1643         estimate D2E/DX2                !
 ! D79   D(5,9,21,8)            -3.924          estimate D2E/DX2                !
 ! D80   D(5,9,21,70)          175.4692         estimate D2E/DX2                !
 ! D81   D(5,10,19,16)          -4.698          estimate D2E/DX2                !
 ! D82   D(5,10,19,46)         175.4327         estimate D2E/DX2                !
 ! D83   D(5,11,20,6)          -10.0254         estimate D2E/DX2                !
 ! D84   D(5,11,20,59)         170.3527         estimate D2E/DX2                !
 ! D85   D(3,12,18,15)          -2.7425         estimate D2E/DX2                !
 ! D86   D(3,12,18,29)         177.2635         estimate D2E/DX2                !
 ! D87   D(3,13,23,7)           -0.1229         estimate D2E/DX2                !
 ! D88   D(3,13,23,83)         179.5253         estimate D2E/DX2                !
 ! D89   D(4,14,22,17)           4.5235         estimate D2E/DX2                !
 ! D90   D(4,14,22,37)        -176.2297         estimate D2E/DX2                !
 ! D91   D(2,15,18,12)          -1.286          estimate D2E/DX2                !
 ! D92   D(2,15,18,29)         178.708          estimate D2E/DX2                !
 ! D93   D(2,16,19,10)          -4.0926         estimate D2E/DX2                !
 ! D94   D(2,16,19,46)         175.777          estimate D2E/DX2                !
 ! D95   D(2,17,22,14)           4.2735         estimate D2E/DX2                !
 ! D96   D(2,17,22,37)        -174.9719         estimate D2E/DX2                !
 ! D97   D(12,18,29,24)        179.2469         estimate D2E/DX2                !
 ! D98   D(12,18,29,28)         -0.7859         estimate D2E/DX2                !
 ! D99   D(15,18,29,24)         -0.7476         estimate D2E/DX2                !
 ! D100  D(15,18,29,28)        179.2195         estimate D2E/DX2                !
 ! D101  D(10,19,46,47)       -179.2995         estimate D2E/DX2                !
 ! D102  D(10,19,46,51)          0.9903         estimate D2E/DX2                !
 ! D103  D(16,19,46,47)          0.8194         estimate D2E/DX2                !
 ! D104  D(16,19,46,51)       -178.8907         estimate D2E/DX2                !
 ! D105  D(6,20,59,58)           1.0009         estimate D2E/DX2                !
 ! D106  D(6,20,59,60)        -178.6648         estimate D2E/DX2                !
 ! D107  D(11,20,59,58)       -179.345          estimate D2E/DX2                !
 ! D108  D(11,20,59,60)          0.9892         estimate D2E/DX2                !
 ! D109  D(8,21,70,69)         177.9024         estimate D2E/DX2                !
 ! D110  D(8,21,70,71)          -1.7545         estimate D2E/DX2                !
 ! D111  D(9,21,70,69)          -1.5457         estimate D2E/DX2                !
 ! D112  D(9,21,70,71)         178.7974         estimate D2E/DX2                !
 ! D113  D(14,22,37,36)          2.4739         estimate D2E/DX2                !
 ! D114  D(14,22,37,38)       -176.1323         estimate D2E/DX2                !
 ! D115  D(17,22,37,36)       -178.2135         estimate D2E/DX2                !
 ! D116  D(17,22,37,38)          3.1803         estimate D2E/DX2                !
 ! D117  D(7,23,83,82)         179.7744         estimate D2E/DX2                !
 ! D118  D(7,23,83,84)           0.1086         estimate D2E/DX2                !
 ! D119  D(13,23,83,82)          0.0951         estimate D2E/DX2                !
 ! D120  D(13,23,83,84)       -179.5708         estimate D2E/DX2                !
 ! D121  D(29,24,25,26)         -0.028          estimate D2E/DX2                !
 ! D122  D(29,24,25,31)       -179.9916         estimate D2E/DX2                !
 ! D123  D(30,24,25,26)       -179.982          estimate D2E/DX2                !
 ! D124  D(30,24,25,31)          0.0543         estimate D2E/DX2                !
 ! D125  D(25,24,29,18)        179.9593         estimate D2E/DX2                !
 ! D126  D(25,24,29,28)         -0.0079         estimate D2E/DX2                !
 ! D127  D(30,24,29,18)         -0.0857         estimate D2E/DX2                !
 ! D128  D(30,24,29,28)        179.9471         estimate D2E/DX2                !
 ! D129  D(24,25,26,27)          0.0645         estimate D2E/DX2                !
 ! D130  D(24,25,26,34)       -179.9081         estimate D2E/DX2                !
 ! D131  D(31,25,26,27)       -179.9719         estimate D2E/DX2                !
 ! D132  D(31,25,26,34)          0.0555         estimate D2E/DX2                !
 ! D133  D(25,26,27,28)         -0.065          estimate D2E/DX2                !
 ! D134  D(25,26,27,32)        179.9427         estimate D2E/DX2                !
 ! D135  D(34,26,27,28)        179.9076         estimate D2E/DX2                !
 ! D136  D(34,26,27,32)         -0.0846         estimate D2E/DX2                !
 ! D137  D(26,27,28,29)          0.029          estimate D2E/DX2                !
 ! D138  D(26,27,28,33)       -179.9364         estimate D2E/DX2                !
 ! D139  D(32,27,28,29)       -179.9787         estimate D2E/DX2                !
 ! D140  D(32,27,28,33)          0.0558         estimate D2E/DX2                !
 ! D141  D(27,28,29,18)       -179.96           estimate D2E/DX2                !
 ! D142  D(27,28,29,24)          0.0074         estimate D2E/DX2                !
 ! D143  D(33,28,29,18)          0.0061         estimate D2E/DX2                !
 ! D144  D(33,28,29,24)        179.9735         estimate D2E/DX2                !
 ! D145  D(40,35,36,37)          0.0536         estimate D2E/DX2                !
 ! D146  D(40,35,36,42)       -179.6682         estimate D2E/DX2                !
 ! D147  D(41,35,36,37)        179.7963         estimate D2E/DX2                !
 ! D148  D(41,35,36,42)          0.0745         estimate D2E/DX2                !
 ! D149  D(36,35,40,39)         -0.2789         estimate D2E/DX2                !
 ! D150  D(36,35,40,45)        179.7345         estimate D2E/DX2                !
 ! D151  D(41,35,40,39)        179.9787         estimate D2E/DX2                !
 ! D152  D(41,35,40,45)         -0.0078         estimate D2E/DX2                !
 ! D153  D(35,36,37,22)       -178.4237         estimate D2E/DX2                !
 ! D154  D(35,36,37,38)          0.1883         estimate D2E/DX2                !
 ! D155  D(42,36,37,22)          1.3037         estimate D2E/DX2                !
 ! D156  D(42,36,37,38)        179.9158         estimate D2E/DX2                !
 ! D157  D(22,37,38,39)        178.4076         estimate D2E/DX2                !
 ! D158  D(22,37,38,43)         -1.1529         estimate D2E/DX2                !
 ! D159  D(36,37,38,39)         -0.2063         estimate D2E/DX2                !
 ! D160  D(36,37,38,43)       -179.7668         estimate D2E/DX2                !
 ! D161  D(37,38,39,40)         -0.0176         estimate D2E/DX2                !
 ! D162  D(37,38,39,44)       -179.6735         estimate D2E/DX2                !
 ! D163  D(43,38,39,40)        179.5328         estimate D2E/DX2                !
 ! D164  D(43,38,39,44)         -0.1231         estimate D2E/DX2                !
 ! D165  D(38,39,40,35)          0.2609         estimate D2E/DX2                !
 ! D166  D(38,39,40,45)       -179.7526         estimate D2E/DX2                !
 ! D167  D(44,39,40,35)        179.9163         estimate D2E/DX2                !
 ! D168  D(44,39,40,45)         -0.0972         estimate D2E/DX2                !
 ! D169  D(19,46,47,48)       -179.7192         estimate D2E/DX2                !
 ! D170  D(19,46,47,52)          0.2084         estimate D2E/DX2                !
 ! D171  D(51,46,47,48)         -0.0076         estimate D2E/DX2                !
 ! D172  D(51,46,47,52)        179.92           estimate D2E/DX2                !
 ! D173  D(19,46,51,50)        179.693          estimate D2E/DX2                !
 ! D174  D(19,46,51,56)         -0.1942         estimate D2E/DX2                !
 ! D175  D(47,46,51,50)         -0.0186         estimate D2E/DX2                !
 ! D176  D(47,46,51,56)       -179.9058         estimate D2E/DX2                !
 ! D177  D(46,47,48,49)          0.0359         estimate D2E/DX2                !
 ! D178  D(46,47,48,53)        179.9974         estimate D2E/DX2                !
 ! D179  D(52,47,48,49)       -179.8903         estimate D2E/DX2                !
 ! D180  D(52,47,48,53)          0.0712         estimate D2E/DX2                !
 ! D181  D(47,48,49,50)         -0.0381         estimate D2E/DX2                !
 ! D182  D(47,48,49,54)        179.9853         estimate D2E/DX2                !
 ! D183  D(53,48,49,50)       -179.9996         estimate D2E/DX2                !
 ! D184  D(53,48,49,54)          0.0238         estimate D2E/DX2                !
 ! D185  D(48,49,50,51)          0.012          estimate D2E/DX2                !
 ! D186  D(48,49,50,55)       -179.9489         estimate D2E/DX2                !
 ! D187  D(54,49,50,51)        179.9886         estimate D2E/DX2                !
 ! D188  D(54,49,50,55)          0.0277         estimate D2E/DX2                !
 ! D189  D(49,50,51,46)          0.0164         estimate D2E/DX2                !
 ! D190  D(49,50,51,56)        179.901          estimate D2E/DX2                !
 ! D191  D(55,50,51,46)        179.9773         estimate D2E/DX2                !
 ! D192  D(55,50,51,56)         -0.138          estimate D2E/DX2                !
 ! D193  D(62,57,58,59)          0.0674         estimate D2E/DX2                !
 ! D194  D(62,57,58,64)       -179.9064         estimate D2E/DX2                !
 ! D195  D(63,57,58,59)        179.9476         estimate D2E/DX2                !
 ! D196  D(63,57,58,64)         -0.0262         estimate D2E/DX2                !
 ! D197  D(58,57,62,61)         -0.1191         estimate D2E/DX2                !
 ! D198  D(58,57,62,67)        179.9342         estimate D2E/DX2                !
 ! D199  D(63,57,62,61)       -179.9991         estimate D2E/DX2                !
 ! D200  D(63,57,62,67)          0.0542         estimate D2E/DX2                !
 ! D201  D(57,58,59,20)       -179.5793         estimate D2E/DX2                !
 ! D202  D(57,58,59,60)          0.0881         estimate D2E/DX2                !
 ! D203  D(64,58,59,20)          0.3951         estimate D2E/DX2                !
 ! D204  D(64,58,59,60)       -179.9375         estimate D2E/DX2                !
 ! D205  D(20,59,60,61)        179.4745         estimate D2E/DX2                !
 ! D206  D(20,59,60,65)         -0.1756         estimate D2E/DX2                !
 ! D207  D(58,59,60,61)         -0.1931         estimate D2E/DX2                !
 ! D208  D(58,59,60,65)       -179.8432         estimate D2E/DX2                !
 ! D209  D(59,60,61,62)          0.1422         estimate D2E/DX2                !
 ! D210  D(59,60,61,66)       -179.8715         estimate D2E/DX2                !
 ! D211  D(65,60,61,62)        179.7849         estimate D2E/DX2                !
 ! D212  D(65,60,61,66)         -0.2287         estimate D2E/DX2                !
 ! D213  D(60,61,62,57)          0.0143         estimate D2E/DX2                !
 ! D214  D(60,61,62,67)        179.9609         estimate D2E/DX2                !
 ! D215  D(66,61,62,57)       -179.9721         estimate D2E/DX2                !
 ! D216  D(66,61,62,67)         -0.0254         estimate D2E/DX2                !
 ! D217  D(73,68,69,70)         -0.1214         estimate D2E/DX2                !
 ! D218  D(73,68,69,75)       -179.9609         estimate D2E/DX2                !
 ! D219  D(74,68,69,70)        179.9358         estimate D2E/DX2                !
 ! D220  D(74,68,69,75)          0.0962         estimate D2E/DX2                !
 ! D221  D(69,68,73,72)          0.048          estimate D2E/DX2                !
 ! D222  D(69,68,73,78)       -179.8643         estimate D2E/DX2                !
 ! D223  D(74,68,73,72)        179.9907         estimate D2E/DX2                !
 ! D224  D(74,68,73,78)          0.0785         estimate D2E/DX2                !
 ! D225  D(68,69,70,21)       -179.6046         estimate D2E/DX2                !
 ! D226  D(68,69,70,71)          0.0537         estimate D2E/DX2                !
 ! D227  D(75,69,70,21)          0.2382         estimate D2E/DX2                !
 ! D228  D(75,69,70,71)        179.8965         estimate D2E/DX2                !
 ! D229  D(21,70,71,72)        179.7469         estimate D2E/DX2                !
 ! D230  D(21,70,71,76)         -0.0616         estimate D2E/DX2                !
 ! D231  D(69,70,71,72)          0.0878         estimate D2E/DX2                !
 ! D232  D(69,70,71,76)       -179.7207         estimate D2E/DX2                !
 ! D233  D(70,71,72,73)         -0.1613         estimate D2E/DX2                !
 ! D234  D(70,71,72,77)        179.9766         estimate D2E/DX2                !
 ! D235  D(76,71,72,73)        179.6433         estimate D2E/DX2                !
 ! D236  D(76,71,72,77)         -0.2188         estimate D2E/DX2                !
 ! D237  D(71,72,73,68)          0.0935         estimate D2E/DX2                !
 ! D238  D(71,72,73,78)       -179.9942         estimate D2E/DX2                !
 ! D239  D(77,72,73,68)        179.9554         estimate D2E/DX2                !
 ! D240  D(77,72,73,78)         -0.1323         estimate D2E/DX2                !
 ! D241  D(84,79,80,81)          0.1107         estimate D2E/DX2                !
 ! D242  D(84,79,80,86)       -179.8925         estimate D2E/DX2                !
 ! D243  D(85,79,80,81)        179.9949         estimate D2E/DX2                !
 ! D244  D(85,79,80,86)         -0.0083         estimate D2E/DX2                !
 ! D245  D(80,79,84,83)         -0.1423         estimate D2E/DX2                !
 ! D246  D(80,79,84,89)        179.8453         estimate D2E/DX2                !
 ! D247  D(85,79,84,83)        179.9733         estimate D2E/DX2                !
 ! D248  D(85,79,84,89)         -0.039          estimate D2E/DX2                !
 ! D249  D(79,80,81,82)         -0.0365         estimate D2E/DX2                !
 ! D250  D(79,80,81,87)       -179.977          estimate D2E/DX2                !
 ! D251  D(86,80,81,82)        179.9666         estimate D2E/DX2                !
 ! D252  D(86,80,81,87)          0.0261         estimate D2E/DX2                !
 ! D253  D(80,81,82,83)         -0.0059         estimate D2E/DX2                !
 ! D254  D(80,81,82,88)       -179.9061         estimate D2E/DX2                !
 ! D255  D(87,81,82,83)        179.9347         estimate D2E/DX2                !
 ! D256  D(87,81,82,88)          0.0345         estimate D2E/DX2                !
 ! D257  D(81,82,83,23)       -179.6933         estimate D2E/DX2                !
 ! D258  D(81,82,83,84)         -0.0256         estimate D2E/DX2                !
 ! D259  D(88,82,83,23)          0.2089         estimate D2E/DX2                !
 ! D260  D(88,82,83,84)        179.8767         estimate D2E/DX2                !
 ! D261  D(23,83,84,79)        179.7669         estimate D2E/DX2                !
 ! D262  D(23,83,84,89)         -0.2209         estimate D2E/DX2                !
 ! D263  D(82,83,84,79)          0.0997         estimate D2E/DX2                !
 ! D264  D(82,83,84,89)       -179.8882         estimate D2E/DX2                !
 --------------------------------------------------------------------------------
 Trust Radius=3.00D-01 FncErr=1.00D-07 GrdErr=1.00D-07
 Number of steps in this run=    534 maximum allowed number of steps=    534.
 GradGradGradGradGradGradGradGradGradGradGradGradGradGradGradGradGradGrad

 Stoichiometry    C42H30O13Zn4
 Framework group  C1[X(C42H30O13Zn4)]
 Deg. of freedom   261
 Full point group                 C1      NOp   1
 Largest Abelian subgroup         C1      NOp   1
 Largest concise Abelian subgroup C1      NOp   1
                         Standard orientation:                         
 ---------------------------------------------------------------------
 Center     Atomic      Atomic             Coordinates (Angstroms)
 Number     Number       Type             X           Y           Z
 ---------------------------------------------------------------------
      1          8           0       -0.000491    0.004980   -0.011963
      2         30           0       -0.296438   -1.400084   -1.316162
      3         30           0        1.681503    0.910669   -0.375167
      4         30           0       -1.470005    1.294874   -0.095781
      5         30           0        0.070923   -0.765329    1.776935
      6          8           0        2.890417    0.837489    1.157998
      7          8           0       -0.816746    3.054698   -0.643343
      8          8           0       -2.326248    1.489074    1.649774
      9          8           0       -1.157399    0.138476    2.996240
     10          8           0       -0.392090   -2.665603    1.736236
     11          8           0        1.885815   -0.638959    2.502683
     12          8           0        2.609303    0.061540   -1.871245
     13          8           0        1.396626    2.790243   -0.821140
     14          8           0       -2.830651    0.735166   -1.377309
     15          8           0        1.188669   -1.516114   -2.579748
     16          8           0       -0.493455   -3.139241   -0.447715
     17          8           0       -1.929374   -1.069580   -2.342301
     18          6           0        2.262474   -0.866308   -2.643416
     19          6           0       -0.540142   -3.452960    0.768435
     20          6           0        2.845367    0.104491    2.176470
     21          6           0       -2.061146    0.981483    2.767648
     22          6           0       -2.830484   -0.204680   -2.211392
     23          6           0        0.344053    3.473305   -0.877180
     24          6           0        2.906620   -2.254144   -4.617988
     25          6           0        3.791185   -2.584342   -5.627381
     26          6           0        4.983588   -1.890987   -5.757636
     27          6           0        5.292277   -0.867150   -4.876596
     28          6           0        4.409052   -0.535713   -3.866869
     29          6           0        3.211325   -1.227303   -3.732020
     30          1           0        1.970761   -2.785650   -4.501579
     31          1           0        3.550825   -3.385160   -6.316551
     32          1           0        6.225544   -0.325783   -4.978413
     33          1           0        4.633684    0.262122   -3.170279
     34          1           0        5.676190   -2.149592   -6.550527
     35          6           0       -6.136744    0.518977   -3.860010
     36          6           0       -5.026420    0.636103   -3.045693
     37          6           0       -4.010024   -0.309405   -3.111525
     38          6           0       -4.114229   -1.370479   -4.002813
     39          6           0       -5.225662   -1.486404   -4.816388
     40          6           0       -6.238469   -0.543377   -4.743432
     41          1           0       -6.928875    1.256231   -3.803675
     42          1           0       -4.933124    1.456894   -2.345922
     43          1           0       -3.315980   -2.101126   -4.039760
     44          1           0       -5.306354   -2.317921   -5.506603
     45          1           0       -7.111624   -0.637090   -5.378863
     46          6           0       -0.796173   -4.883096    1.087195
     47          6           0       -0.954698   -5.809304    0.063423
     48          6           0       -1.198276   -7.136637    0.359863
     49          6           0       -1.285629   -7.546206    1.680673
     50          6           0       -1.128248   -6.626521    2.705265
     51          6           0       -0.884042   -5.298693    2.410454
     52          1           0       -0.885228   -5.472314   -0.963426
     53          1           0       -1.321404   -7.856084   -0.441031
     54          1           0       -1.476964   -8.587538    1.912896
     55          1           0       -1.195821   -6.947417    3.738280
     56          1           0       -0.759867   -4.565227    3.197398
     57          6           0        6.230099    0.908066    3.615631
     58          6           0        5.125199    0.913659    2.785457
     59          6           0        4.031506    0.106434    3.074288
     60          6           0        4.054244   -0.704332    4.202510
     61          6           0        5.160850   -0.710360    5.030498
     62          6           0        6.248888    0.095040    4.737954
     63          1           0        7.081685    1.538184    3.386983
     64          1           0        5.092759    1.540930    1.903397
     65          1           0        3.196475   -1.330261    4.414403
     66          1           0        5.176361   -1.345281    5.908422
     67          1           0        7.116234    0.090294    5.388133
     68          6           0       -3.487753    1.254435    6.241886
     69          6           0       -2.698915    0.860178    5.177568
     70          6           0       -2.902451    1.409731    3.917837
     71          6           0       -3.901865    2.357840    3.734563
     72          6           0       -4.687623    2.752900    4.800580
     73          6           0       -4.482037    2.201094    6.054513
     74          1           0       -3.327084    0.823091    7.222904
     75          1           0       -1.918002    0.121262    5.306164
     76          1           0       -4.053099    2.774898    2.746871
     77          1           0       -5.465743    3.492665    4.654214
     78          1           0       -5.098921    2.511507    6.890089
     79          6           0       -0.497311    7.059508   -1.657809
     80          6           0        0.758193    7.582384   -1.922193
     81          6           0        1.878071    6.770059   -1.850044
     82          6           0        1.743742    5.436201   -1.513187
     83          6           0        0.486807    4.907521   -1.246325
     84          6           0       -0.633508    5.726251   -1.319288
     85          1           0       -1.373028    7.695336   -1.714288
     86          1           0        0.864182    8.628422   -2.185869
     87          1           0        2.859861    7.179491   -2.056533
     88          1           0        2.608921    4.787844   -1.450855
     89          1           0       -1.607028    5.302479   -1.107240
 ---------------------------------------------------------------------
 Rotational constants (GHZ):      0.0312364      0.0310784      0.0308754
 Standard basis: def2SVP (5D, 7F)
 There are  1119 symmetry adapted cartesian basis functions of A   symmetry.
 There are  1044 symmetry adapted basis functions of A   symmetry.
  1044 basis functions,  1909 primitive gaussians,  1119 cartesian basis functions
   253 alpha electrons      253 beta electrons
       nuclear repulsion energy     12860.5150670533 Hartrees.
 NAtoms=   89 NActive=   89 NUniq=   89 SFac= 1.00D+00 NAtFMM=   60 NAOKFM=T Big=T
 Integral buffers will be    131072 words long.
 Raffenetti 2 integral format.
 Two-electron integral symmetry is turned on.
 Nuclear repulsion after empirical dispersion term =    12860.4498109414 Hartrees.
 One-electron integrals computed using PRISM.
   1 Symmetry operations used in ECPInt.
 ECPInt:  NShTT=  107880 NPrTT=  430166 LenC2=   72057 LenP2D=  165560.
 LDataN:  DoStor=T MaxTD1= 6 Len=  172
 NBasis=  1044 RedAO= T EigKep=  2.76D-04  NBF=  1044
 NBsUse=  1044 1.00D-06 EigRej= -1.00D+00 NBFU=  1044
 ExpMin= 4.23D-02 ExpMax= 8.20D+04 ExpMxC= 1.23D+04 IAcc=3 IRadAn=         7 AccDes= 0.00D+00
 Harris functional with IExCor= 1009 and IRadAn=       7 diagonalized for initial guess.
 HarFok:  IExCor= 1009 AccDes= 0.00D+00 IRadAn=         7 IDoV= 1 UseB2=F ITyADJ=14
 ICtDFT=  3500011 ScaDFX=  1.000000  1.000000  1.000000  1.000000
 FoFCou: FMM=F IPFlag=           0 FMFlag=      100000 FMFlg1=        2001
         NFxFlg=           0 DoJE=T BraDBF=F KetDBF=T FulRan=T
         wScrn=  0.000000 ICntrl=     500 IOpCl=  0 I1Cent=   200000004 NGrid=           0
         NMat0=    1 NMatS0=      1 NMatT0=    0 NMatD0=    1 NMtDS0=    0 NMtDT0=    0
 Petite list used in FoFCou.
 Requested convergence on RMS density matrix=1.00D-08 within 128 cycles.
 Requested convergence on MAX density matrix=1.00D-06.
 Requested convergence on             energy=1.00D-06.
 No special actions if energy rises.
 SCF Done:  E(RPBE-PBE) =  -9707.71202414     A.U. after   14 cycles
            NFock= 14  Conv=0.53D-08     -V/T= 2.0036

 **********************************************************************

            Population analysis using the SCF density.

 **********************************************************************

 Orbital symmetries:
       Occupied  (A) (A) (A) (A) (A) (A) (A) (A) (A) (A) (A) (A)
                 (A) (A) (A) (A) (A) (A) (A) (A) (A) (A) (A) (A)
                 (A) (A) (A) (A) (A) (A) (A) (A) (A) (A) (A) (A)
                 (A) (A) (A) (A) (A) (A) (A) (A) (A) (A) (A) (A)
                 (A) (A) (A) (A) (A) (A) (A) (A) (A) (A) (A) (A)
                 (A) (A) (A) (A) (A) (A) (A) (A) (A) (A) (A) (A)
                 (A) (A) (A) (A) (A) (A) (A) (A) (A) (A) (A) (A)
                 (A) (A) (A) (A) (A) (A) (A) (A) (A) (A) (A) (A)
                 (A) (A) (A) (A) (A) (A) (A) (A) (A) (A) (A) (A)
                 (A) (A) (A) (A) (A) (A) (A) (A) (A) (A) (A) (A)
                 (A) (A) (A) (A) (A) (A) (A) (A) (A) (A) (A) (A)
                 (A) (A) (A) (A) (A) (A) (A) (A) (A) (A) (A) (A)
                 (A) (A) (A) (A) (A) (A) (A) (A) (A) (A) (A) (A)
                 (A) (A) (A) (A) (A) (A) (A) (A) (A) (A) (A) (A)
                 (A) (A) (A) (A) (A) (A) (A) (A) (A) (A) (A) (A)
                 (A) (A) (A) (A) (A) (A) (A) (A) (A) (A) (A) (A)
                 (A) (A) (A) (A) (A) (A) (A) (A) (A) (A) (A) (A)
                 (A) (A) (A) (A) (A) (A) (A) (A) (A) (A) (A) (A)
                 (A) (A) (A) (A) (A) (A) (A) (A) (A) (A) (A) (A)
                 (A) (A) (A) (A) (A) (A) (A) (A) (A) (A) (A) (A)
                 (A) (A) (A) (A) (A) (A) (A) (A) (A) (A) (A) (A)
                 (A)
       Virtual   (A) (A) (A) (A) (A) (A) (A) (A) (A) (A) (A) (A)
                 (A) (A) (A) (A) (A) (A) (A) (A) (A) (A) (A) (A)
                 (A) (A) (A) (A) (A) (A) (A) (A) (A) (A) (A) (A)
                 (A) (A) (A) (A) (A) (A) (A) (A) (A) (A) (A) (A)
                 (A) (A) (A) (A) (A) (A) (A) (A) (A) (A) (A) (A)
                 (A) (A) (A) (A) (A) (A) (A) (A) (A) (A) (A) (A)
                 (A) (A) (A) (A) (A) (A) (A) (A) (A) (A) (A) (A)
                 (A) (A) (A) (A) (A) (A) (A) (A) (A) (A) (A) (A)
                 (A) (A) (A) (A) (A) (A) (A) (A) (A) (A) (A) (A)
                 (A) (A) (A) (A) (A) (A) (A) (A) (A) (A) (A) (A)
                 (A) (A) (A) (A) (A) (A) (A) (A) (A) (A) (A) (A)
                 (A) (A) (A) (A) (A) (A) (A) (A) (A) (A) (A) (A)
                 (A) (A) (A) (A) (A) (A) (A) (A) (A) (A) (A) (A)
                 (A) (A) (A) (A) (A) (A) (A) (A) (A) (A) (A) (A)
                 (A) (A) (A) (A) (A) (A) (A) (A) (A) (A) (A) (A)
                 (A) (A) (A) (A) (A) (A) (A) (A) (A) (A) (A) (A)
                 (A) (A) (A) (A) (A) (A) (A) (A) (A) (A) (A) (A)
                 (A) (A) (A) (A) (A) (A) (A) (A) (A) (A) (A) (A)
                 (A) (A) (A) (A) (A) (A) (A) (A) (A) (A) (A) (A)
                 (A) (A) (A) (A) (A) (A) (A) (A) (A) (A) (A) (A)
                 (A) (A) (A) (A) (A) (A) (A) (A) (A) (A) (A) (A)
                 (A) (A) (A) (A) (A) (A) (A) (A) (A) (A) (A) (A)
                 (A) (A) (A) (A) (A) (A) (A) (A) (A) (A) (A) (A)
                 (A) (A) (A) (A) (A) (A) (A) (A) (A) (A) (A) (A)
                 (A) (A) (A) (A) (A) (A) (A) (A) (A) (A) (A) (A)
                 (A) (A) (A) (A) (A) (A) (A) (A) (A) (A) (A) (A)
                 (A) (A) (A) (A) (A) (A) (A) (A) (A) (A) (A) (A)
                 (A) (A) (A) (A) (A) (A) (A) (A) (A) (A) (A) (A)
                 (A) (A) (A) (A) (A) (A) (A) (A) (A) (A) (A) (A)
                 (A) (A) (A) (A) (A) (A) (A) (A) (A) (A) (A) (A)
                 (A) (A) (A) (A) (A) (A) (A) (A) (A) (A) (A) (A)
                 (A) (A) (A) (A) (A) (A) (A) (A) (A) (A) (A) (A)
                 (A) (A) (A) (A) (A) (A) (A) (A) (A) (A) (A) (A)
                 (A) (A) (A) (A) (A) (A) (A) (A) (A) (A) (A) (A)
                 (A) (A) (A) (A) (A) (A) (A) (A) (A) (A) (A) (A)
                 (A) (A) (A) (A) (A) (A) (A) (A) (A) (A) (A) (A)
                 (A) (A) (A) (A) (A) (A) (A) (A) (A) (A) (A) (A)
                 (A) (A) (A) (A) (A) (A) (A) (A) (A) (A) (A) (A)
                 (A) (A) (A) (A) (A) (A) (A) (A) (A) (A) (A) (A)
                 (A) (A) (A) (A) (A) (A) (A) (A) (A) (A) (A) (A)
                 (A) (A) (A) (A) (A) (A) (A) (A) (A) (A) (A) (A)
                 (A) (A) (A) (A) (A) (A) (A) (A) (A) (A) (A) (A)
                 (A) (A) (A) (A) (A) (A) (A) (A) (A) (A) (A) (A)
                 (A) (A) (A) (A) (A) (A) (A) (A) (A) (A) (A) (A)
                 (A) (A) (A) (A) (A) (A) (A) (A) (A) (A) (A) (A)
                 (A) (A) (A) (A) (A) (A) (A) (A) (A) (A) (A) (A)
                 (A) (A) (A) (A) (A) (A) (A) (A) (A) (A) (A) (A)
                 (A) (A) (A) (A) (A) (A) (A) (A) (A) (A) (A) (A)
                 (A) (A) (A) (A) (A) (A) (A) (A) (A) (A) (A) (A)
                 (A) (A) (A) (A) (A) (A) (A) (A) (A) (A) (A) (A)
                 (A) (A) (A) (A) (A) (A) (A) (A) (A) (A) (A) (A)
                 (A) (A) (A) (A) (A) (A) (A) (A) (A) (A) (A) (A)
                 (A) (A) (A) (A) (A) (A) (A) (A) (A) (A) (A) (A)
                 (A) (A) (A) (A) (A) (A) (A) (A) (A) (A) (A) (A)
                 (A) (A) (A) (A) (A) (A) (A) (A) (A) (A) (A) (A)
                 (A) (A) (A) (A) (A) (A) (A) (A) (A) (A) (A) (A)
                 (A) (A) (A) (A) (A) (A) (A) (A) (A) (A) (A) (A)
                 (A) (A) (A) (A) (A) (A) (A) (A) (A) (A) (A) (A)
                 (A) (A) (A) (A) (A) (A) (A) (A) (A) (A) (A) (A)
                 (A) (A) (A) (A) (A) (A) (A) (A) (A) (A) (A) (A)
                 (A) (A) (A) (A) (A) (A) (A) (A) (A) (A) (A) (A)
                 (A) (A) (A) (A) (A) (A) (A) (A) (A) (A) (A) (A)
                 (A) (A) (A) (A) (A) (A) (A) (A) (A) (A) (A) (A)
                 (A) (A) (A) (A) (A) (A) (A) (A) (A) (A) (A) (A)
                 (A) (A) (A) (A) (A) (A) (A) (A) (A) (A) (A) (A)
                 (A) (A) (A) (A) (A) (A) (A) (A) (A) (A) (A)
 The electronic state is 1-A.
 Alpha  occ. eigenvalues -- -345.68594-345.68559-345.68489-345.68453 -41.64638
 Alpha  occ. eigenvalues --  -41.64604 -41.64540 -41.64506 -36.72827 -36.72827
 Alpha  occ. eigenvalues --  -36.72807 -36.72801 -36.72789 -36.72768 -36.72734
 Alpha  occ. eigenvalues --  -36.72729 -36.72702 -36.72698 -36.72695 -36.72667
 Alpha  occ. eigenvalues --  -18.76293 -18.76247 -18.76197 -18.76184 -18.76178
 Alpha  occ. eigenvalues --  -18.76153 -18.76137 -18.76137 -18.76128 -18.76115
 Alpha  occ. eigenvalues --  -18.76106 -18.76092 -18.75803 -10.01796 -10.01720
 Alpha  occ. eigenvalues --  -10.01696 -10.01671 -10.01658 -10.01653  -9.90411
 Alpha  occ. eigenvalues --   -9.90405  -9.90375  -9.90368  -9.90366  -9.90360
 Alpha  occ. eigenvalues --   -9.90353  -9.90350  -9.90338  -9.90335  -9.90323
 Alpha  occ. eigenvalues --   -9.90306  -9.90074  -9.90064  -9.90047  -9.90046
 Alpha  occ. eigenvalues --   -9.90037  -9.90034  -9.90034  -9.90029  -9.90024
 Alpha  occ. eigenvalues --   -9.90022  -9.90017  -9.90016  -9.90009  -9.90004
 Alpha  occ. eigenvalues --   -9.89998  -9.89995  -9.89991  -9.89988  -9.89985
 Alpha  occ. eigenvalues --   -9.89981  -9.89980  -9.89976  -9.89962  -9.89935
 Alpha  occ. eigenvalues --   -4.59431  -4.59395  -4.59336  -4.59307  -3.02902
 Alpha  occ. eigenvalues --   -3.02901  -3.02879  -3.02875  -3.02860  -3.02838
 Alpha  occ. eigenvalues --   -3.02816  -3.02805  -3.02782  -3.02778  -3.02776
 Alpha  occ. eigenvalues --   -3.02750  -0.98818  -0.98703  -0.98663  -0.98658
 Alpha  occ. eigenvalues --   -0.98581  -0.98566  -0.90170  -0.90104  -0.90085
 Alpha  occ. eigenvalues --   -0.89950  -0.89923  -0.89881  -0.83602  -0.78266
 Alpha  occ. eigenvalues --   -0.78232  -0.78217  -0.78209  -0.78205  -0.78169
 Alpha  occ. eigenvalues --   -0.68726  -0.68684  -0.68666  -0.68658  -0.68636
 Alpha  occ. eigenvalues --   -0.68602  -0.67462  -0.67430  -0.67422  -0.67416
 Alpha  occ. eigenvalues --   -0.67405  -0.67379  -0.57770  -0.57549  -0.57535
 Alpha  occ. eigenvalues --   -0.57521  -0.57395  -0.57385  -0.54571  -0.54539
 Alpha  occ. eigenvalues --   -0.54524  -0.54504  -0.54492  -0.54462  -0.51158
 Alpha  occ. eigenvalues --   -0.50861  -0.50845  -0.50821  -0.50644  -0.50627
 Alpha  occ. eigenvalues --   -0.47568  -0.47506  -0.47494  -0.47488  -0.47250
 Alpha  occ. eigenvalues --   -0.47225  -0.47143  -0.47105  -0.47099  -0.46670
 Alpha  occ. eigenvalues --   -0.46641  -0.46580  -0.42608  -0.42586  -0.42577
 Alpha  occ. eigenvalues --   -0.42219  -0.42201  -0.42122  -0.41832  -0.41806
 Alpha  occ. eigenvalues --   -0.41776  -0.41707  -0.41685  -0.41665  -0.40919
 Alpha  occ. eigenvalues --   -0.40873  -0.40850  -0.40526  -0.40495  -0.40482
 Alpha  occ. eigenvalues --   -0.40409  -0.40387  -0.40366  -0.39904  -0.39897
 Alpha  occ. eigenvalues --   -0.39716  -0.39512  -0.39509  -0.39502  -0.38759
 Alpha  occ. eigenvalues --   -0.38751  -0.38509  -0.38488  -0.38481  -0.38053
 Alpha  occ. eigenvalues --   -0.38038  -0.38025  -0.37788  -0.37736  -0.37708
 Alpha  occ. eigenvalues --   -0.37700  -0.37685  -0.37672  -0.37649  -0.37020
 Alpha  occ. eigenvalues --   -0.37012  -0.36459  -0.36453  -0.36446  -0.35085
 Alpha  occ. eigenvalues --   -0.35041  -0.35023  -0.33513  -0.33486  -0.33458
 Alpha  occ. eigenvalues --   -0.33353  -0.33329  -0.33308  -0.32569  -0.32554
 Alpha  occ. eigenvalues --   -0.32544  -0.31966  -0.31962  -0.31956  -0.31072
 Alpha  occ. eigenvalues --   -0.31058  -0.31051  -0.30135  -0.30111  -0.30091
 Alpha  occ. eigenvalues --   -0.30077  -0.30062  -0.30040  -0.28630  -0.28019
 Alpha  occ. eigenvalues --   -0.27963  -0.26866  -0.26829  -0.26790  -0.26353
 Alpha  occ. eigenvalues --   -0.25115  -0.25096  -0.25063  -0.24981  -0.24976
 Alpha  occ. eigenvalues --   -0.24328  -0.24285  -0.24239  -0.23675  -0.23635
 Alpha  occ. eigenvalues --   -0.23632  -0.23611  -0.23595  -0.23559  -0.23510
 Alpha  occ. eigenvalues --   -0.23483  -0.23476  -0.23466  -0.23461  -0.23441
 Alpha  occ. eigenvalues --   -0.23426  -0.23418  -0.23407
 Alpha virt. eigenvalues --   -0.07540  -0.07506  -0.07470  -0.07265  -0.07224
 Alpha virt. eigenvalues --   -0.07190  -0.03908  -0.03883  -0.03868  -0.03854
 Alpha virt. eigenvalues --   -0.03852  -0.03821  -0.03709   0.01733   0.01769
 Alpha virt. eigenvalues --    0.01824   0.02025   0.02195   0.02255   0.02409
 Alpha virt. eigenvalues --    0.02471   0.02596   0.04423   0.04602   0.04612
 Alpha virt. eigenvalues --    0.05045   0.05057   0.05066   0.07431   0.07826
 Alpha virt. eigenvalues --    0.07879   0.07903   0.08469   0.08494   0.08507
 Alpha virt. eigenvalues --    0.09814   0.09854   0.09871   0.10143   0.10193
 Alpha virt. eigenvalues --    0.11431   0.11455   0.11467   0.11547   0.12196
 Alpha virt. eigenvalues --    0.12243   0.12274   0.12611   0.12640   0.12663
 Alpha virt. eigenvalues --    0.12734   0.12755   0.12811   0.13014   0.13085
 Alpha virt. eigenvalues --    0.13942   0.14006   0.14036   0.14246   0.14261
 Alpha virt. eigenvalues --    0.14292   0.14653   0.14885   0.15226   0.15338
 Alpha virt. eigenvalues --    0.18426   0.18483   0.18531   0.22352   0.22403
 Alpha virt. eigenvalues --    0.22453   0.22454   0.22565   0.22651   0.22679
 Alpha virt. eigenvalues --    0.22820   0.23337   0.23461   0.23479   0.23522
 Alpha virt. eigenvalues --    0.25061   0.25111   0.25392   0.25405   0.25420
 Alpha virt. eigenvalues --    0.25583   0.25818   0.25848   0.25861   0.25932
 Alpha virt. eigenvalues --    0.25949   0.25981   0.26435   0.26446   0.26471
 Alpha virt. eigenvalues --    0.26606   0.26633   0.27352   0.27355   0.27445
 Alpha virt. eigenvalues --    0.28879   0.28902   0.28928   0.29543   0.29548
 Alpha virt. eigenvalues --    0.29674   0.30309   0.30342   0.30389   0.32064
 Alpha virt. eigenvalues --    0.33239   0.33262   0.33281   0.33298   0.33316
 Alpha virt. eigenvalues --    0.33832   0.33918   0.33940   0.35310   0.36414
 Alpha virt. eigenvalues --    0.36522   0.36560   0.38249   0.38279   0.38284
 Alpha virt. eigenvalues --    0.38289   0.38295   0.38332   0.38754   0.38786
 Alpha virt. eigenvalues --    0.38803   0.38814   0.38820   0.38963   0.41943
 Alpha virt. eigenvalues --    0.41972   0.41998   0.42152   0.42194   0.42232
 Alpha virt. eigenvalues --    0.42280   0.42466   0.42498   0.42515   0.42558
 Alpha virt. eigenvalues --    0.42581   0.44258   0.44287   0.44298   0.44358
 Alpha virt. eigenvalues --    0.44385   0.44404   0.44554   0.44608   0.45351
 Alpha virt. eigenvalues --    0.45381   0.45400   0.45478   0.45539   0.45645
 Alpha virt. eigenvalues --    0.45672   0.45806   0.45888   0.45962   0.46106
 Alpha virt. eigenvalues --    0.46144   0.46158   0.46199   0.46216   0.46315
 Alpha virt. eigenvalues --    0.46371   0.46468   0.47246   0.48018   0.48041
 Alpha virt. eigenvalues --    0.48083   0.49639   0.49666   0.49679   0.49686
 Alpha virt. eigenvalues --    0.49699   0.49719   0.54117   0.54171   0.54210
 Alpha virt. eigenvalues --    0.54475   0.54532   0.54574   0.55165   0.55621
 Alpha virt. eigenvalues --    0.55774   0.55792   0.55799   0.55811   0.55831
 Alpha virt. eigenvalues --    0.55859   0.56789   0.56856   0.57004   0.58568
 Alpha virt. eigenvalues --    0.58610   0.58623   0.59910   0.59937   0.59965
 Alpha virt. eigenvalues --    0.60624   0.60674   0.60689   0.60929   0.60941
 Alpha virt. eigenvalues --    0.60978   0.61091   0.61164   0.61235   0.61295
 Alpha virt. eigenvalues --    0.61335   0.61435   0.61437   0.61524   0.61613
 Alpha virt. eigenvalues --    0.61734   0.61806   0.61825   0.61877   0.62868
 Alpha virt. eigenvalues --    0.62967   0.62991   0.63188   0.63212   0.63256
 Alpha virt. eigenvalues --    0.63749   0.63769   0.65482   0.65536   0.65600
 Alpha virt. eigenvalues --    0.66239   0.66278   0.66293   0.66815   0.66880
 Alpha virt. eigenvalues --    0.66892   0.67672   0.68249   0.68285   0.68294
 Alpha virt. eigenvalues --    0.68302   0.68323   0.68343   0.69294   0.69334
 Alpha virt. eigenvalues --    0.69378   0.69474   0.69527   0.69537   0.69728
 Alpha virt. eigenvalues --    0.69803   0.70977   0.71017   0.71026   0.71050
 Alpha virt. eigenvalues --    0.71660   0.71746   0.72129   0.72150   0.72178
 Alpha virt. eigenvalues --    0.72669   0.73227   0.73285   0.73341   0.73666
 Alpha virt. eigenvalues --    0.73702   0.74359   0.74452   0.74476   0.75555
 Alpha virt. eigenvalues --    0.75593   0.75611   0.77005   0.81524   0.81556
 Alpha virt. eigenvalues --    0.81644   0.81652   0.81668   0.82110   0.82165
 Alpha virt. eigenvalues --    0.82232   0.82738   0.83770   0.83810   0.83845
 Alpha virt. eigenvalues --    0.86571   0.86608   0.86673   0.88490   0.88535
 Alpha virt. eigenvalues --    0.88615   0.92633   0.92731   0.92853   0.92893
 Alpha virt. eigenvalues --    0.93056   0.93379   0.93533   0.93984   0.96772
 Alpha virt. eigenvalues --    0.96933   0.97684   0.98566   0.98634   0.98701
 Alpha virt. eigenvalues --    1.01087   1.01185   1.01233   1.02543   1.03259
 Alpha virt. eigenvalues --    1.03452   1.03532   1.04474   1.04693   1.04864
 Alpha virt. eigenvalues --    1.05395   1.05561   1.05898   1.06323   1.06500
 Alpha virt. eigenvalues --    1.08073   1.09364   1.09603   1.09664   1.11029
 Alpha virt. eigenvalues --    1.11211   1.11303   1.12862   1.12903   1.12987
 Alpha virt. eigenvalues --    1.13383   1.13418   1.13479   1.16089   1.16131
 Alpha virt. eigenvalues --    1.16286   1.17176   1.17611   1.17660   1.17689
 Alpha virt. eigenvalues --    1.17730   1.17995   1.18136   1.18151   1.18183
 Alpha virt. eigenvalues --    1.18197   1.18200   1.18231   1.18293   1.18344
 Alpha virt. eigenvalues --    1.19947   1.20158   1.20267   1.20455   1.20585
 Alpha virt. eigenvalues --    1.20599   1.21200   1.21545   1.21616   1.21761
 Alpha virt. eigenvalues --    1.22292   1.22363   1.22395   1.23384   1.23440
 Alpha virt. eigenvalues --    1.23607   1.23931   1.23942   1.24108   1.24715
 Alpha virt. eigenvalues --    1.24753   1.24870   1.25206   1.25270   1.25366
 Alpha virt. eigenvalues --    1.26022   1.26101   1.26845   1.26907   1.27012
 Alpha virt. eigenvalues --    1.27403   1.28309   1.28489   1.28532   1.29101
 Alpha virt. eigenvalues --    1.29242   1.29324   1.31460   1.31531   1.35863
 Alpha virt. eigenvalues --    1.35951   1.38897   1.39131   1.39412   1.39709
 Alpha virt. eigenvalues --    1.39944   1.40299   1.42073   1.42419   1.42533
 Alpha virt. eigenvalues --    1.43072   1.47059   1.47508   1.47526   1.47656
 Alpha virt. eigenvalues --    1.47778   1.47863   1.51436   1.55194   1.55335
 Alpha virt. eigenvalues --    1.55470   1.57207   1.57428   1.59237   1.59260
 Alpha virt. eigenvalues --    1.59323   1.59530   1.59803   1.59854   1.60152
 Alpha virt. eigenvalues --    1.60177   1.60181   1.60198   1.60208   1.60234
 Alpha virt. eigenvalues --    1.61058   1.61073   1.61137   1.61177   1.61190
 Alpha virt. eigenvalues --    1.61223   1.61864   1.62109   1.62160   1.63416
 Alpha virt. eigenvalues --    1.63538   1.63748   1.64426   1.64539   1.64556
 Alpha virt. eigenvalues --    1.64891   1.66355   1.66372   1.66542   1.66589
 Alpha virt. eigenvalues --    1.66634   1.66932   1.67426   1.67469   1.67491
[...]
 Alpha virt. eigenvalues --    0.40688   0.40688   0.40688   0.40818   0.40818
 Alpha virt. eigenvalues --    0.42265   0.42265   0.42266   0.42299   0.42299
 Alpha virt. eigenvalues --    0.42299   0.43289   0.43289   0.43529   0.43529
 Alpha virt. eigenvalues --    0.43530   0.43807   0.43807   0.43807   0.44214
 Alpha virt. eigenvalues --    0.44214   0.44215   0.44511   0.44512   0.44512
 Alpha virt. eigenvalues --    0.44660   0.44859   0.44859   0.44859   0.44993
 Alpha virt. eigenvalues --    0.44993   0.45726   0.45727   0.45727   0.46113
 Alpha virt. eigenvalues --    0.46113   0.46114   0.46124   0.46836   0.46836
 Alpha virt. eigenvalues --    0.46837   0.49815   0.49815   0.49819   0.49819
 Alpha virt. eigenvalues --    0.49819   0.49827   0.54011   0.54011   0.54011
 Alpha virt. eigenvalues --    0.54340   0.54340   0.54340   0.54359   0.54361
 Alpha virt. eigenvalues --    0.55506   0.55507   0.55507   0.55547   0.55547
 Alpha virt. eigenvalues --    0.55566   0.55566   0.55566   0.55600   0.56929
 Alpha virt. eigenvalues --    0.56929   0.56929   0.59430   0.59430   0.59430
 Alpha virt. eigenvalues --    0.59535   0.59535   0.59535   0.59676   0.59676
 Alpha virt. eigenvalues --    0.59677   0.60148   0.60214   0.60214   0.60214
 Alpha virt. eigenvalues --    0.60476   0.60477   0.60477   0.60561   0.60562
 Alpha virt. eigenvalues --    0.60617   0.60875   0.60875   0.60875   0.61959
 Alpha virt. eigenvalues --    0.61959   0.61959   0.61999   0.61999   0.61999
 Alpha virt. eigenvalues --    0.62890   0.62891   0.64650   0.64650   0.64650
 Alpha virt. eigenvalues --    0.65816   0.65816   0.65816   0.66068   0.66068
 Alpha virt. eigenvalues --    0.66068   0.66143   0.67192   0.67242   0.67242
 Alpha virt. eigenvalues --    0.67250   0.67250   0.67250   0.67839   0.67839
 Alpha virt. eigenvalues --    0.67883   0.67883   0.67883   0.68434   0.68434
 Alpha virt. eigenvalues --    0.68435   0.69794   0.69872   0.69872   0.69872
 Alpha virt. eigenvalues --    0.70644   0.70644   0.71156   0.71156   0.71156
 Alpha virt. eigenvalues --    0.71555   0.72606   0.72606   0.72606   0.72740
 Alpha virt. eigenvalues --    0.72740   0.73476   0.73476   0.73477   0.74369
 Alpha virt. eigenvalues --    0.74369   0.74369   0.75521   0.80357   0.80357
 Alpha virt. eigenvalues --    0.80516   0.80517   0.80517   0.81529   0.81612
 Alpha virt. eigenvalues --    0.81612   0.81612   0.83019   0.83020   0.83020
 Alpha virt. eigenvalues --    0.85630   0.85630   0.85631   0.87911   0.87913
 Alpha virt. eigenvalues --    0.87913   0.92149   0.92150   0.92150   0.92207
 Alpha virt. eigenvalues --    0.92208   0.92719   0.92720   0.92720   0.96257
 Alpha virt. eigenvalues --    0.96259   0.97106   0.98085   0.98085   0.98085
 Alpha virt. eigenvalues --    1.00573   1.00573   1.00573   1.01367   1.02555
 Alpha virt. eigenvalues --    1.02555   1.02555   1.04197   1.04199   1.04200
 Alpha virt. eigenvalues --    1.05042   1.05043   1.05043   1.05315   1.05315
 Alpha virt. eigenvalues --    1.06761   1.08893   1.08894   1.08895   1.10427
 Alpha virt. eigenvalues --    1.10427   1.10428   1.12559   1.12560   1.12560
 Alpha virt. eigenvalues --    1.13130   1.13130   1.13130   1.15391   1.15393
 Alpha virt. eigenvalues --    1.15393   1.16858   1.16859   1.17518   1.17518
 Alpha virt. eigenvalues --    1.17519   1.17808   1.17808   1.17809   1.17809
 Alpha virt. eigenvalues --    1.17809   1.17809   1.17933   1.18008   1.18009
 Alpha virt. eigenvalues --    1.19241   1.19242   1.19242   1.20069   1.20069
 Alpha virt. eigenvalues --    1.20070   1.20356   1.20883   1.20883   1.20883
 Alpha virt. eigenvalues --    1.21323   1.21323   1.21324   1.22679   1.22679
 Alpha virt. eigenvalues --    1.22680   1.23460   1.23460   1.23607   1.24068
 Alpha virt. eigenvalues --    1.24068   1.24068   1.24315   1.24316   1.24317
 Alpha virt. eigenvalues --    1.25025   1.25025   1.25859   1.26508   1.26508
 Alpha virt. eigenvalues --    1.26509   1.27657   1.27657   1.27659   1.28730
 Alpha virt. eigenvalues --    1.28730   1.28730   1.31326   1.31326   1.35585
 Alpha virt. eigenvalues --    1.35586   1.39020   1.39021   1.39021   1.39469
 Alpha virt. eigenvalues --    1.39470   1.39470   1.41859   1.41860   1.41860
 Alpha virt. eigenvalues --    1.43124   1.46058   1.46603   1.46603   1.46603
 Alpha virt. eigenvalues --    1.46780   1.46780   1.51184   1.55093   1.55093
 Alpha virt. eigenvalues --    1.55093   1.56984   1.56985   1.58092   1.58092
 Alpha virt. eigenvalues --    1.58092   1.58312   1.58818   1.58818   1.58818
 Alpha virt. eigenvalues --    1.58819   1.58819   1.58825   1.58825   1.58825
 Alpha virt. eigenvalues --    1.60159   1.60159   1.60159   1.60219   1.60219
 Alpha virt. eigenvalues --    1.60220   1.61708   1.61708   1.61708   1.63273
 Alpha virt. eigenvalues --    1.63273   1.63274   1.63350   1.63576   1.63577
 Alpha virt. eigenvalues --    1.63577   1.64367   1.64367   1.64570   1.64571
 Alpha virt. eigenvalues --    1.64571   1.65381   1.66028   1.66028   1.66028
 Alpha virt. eigenvalues --    1.66258   1.66258   1.66495   1.66495   1.66495
 Alpha virt. eigenvalues --    1.67276   1.67277   1.67277   1.67781   1.67798
 Alpha virt. eigenvalues --    1.67940   1.67940   1.67941   1.67941   1.67941
 Alpha virt. eigenvalues --    1.68396   1.68396   1.68397   1.68449   1.68449
 Alpha virt. eigenvalues --    1.68449   1.68478   1.68478   1.68748   1.68748
 Alpha virt. eigenvalues --    1.68748   1.69109   1.70567   1.70567   1.70567
 Alpha virt. eigenvalues --    1.70779   1.70779   1.70780   1.74120   1.74120
 Alpha virt. eigenvalues --    1.74120   1.75365   1.75366   1.76109   1.76109
 Alpha virt. eigenvalues --    1.76110   1.79321   1.79321   1.79322   1.80266
 Alpha virt. eigenvalues --    1.84840   1.84840   1.84842   1.84842   1.84842
 Alpha virt. eigenvalues --    1.85471   1.85472   1.85472   1.85603   1.85603
 Alpha virt. eigenvalues --    1.85603   1.85618   1.85619   1.85619   1.86993
 Alpha virt. eigenvalues --    1.86993   1.86994   1.87297   1.89465   1.89466
 Alpha virt. eigenvalues --    1.89467   1.89793   1.89793   1.89793   1.89800
 Alpha virt. eigenvalues --    1.89800   1.89800   1.89843   1.89843   1.89843
 Alpha virt. eigenvalues --    1.89857   1.89857   1.89858   1.90038   1.90038
 Alpha virt. eigenvalues --    1.90038   1.90039   1.90039   1.90039   1.90478
 Alpha virt. eigenvalues --    1.90478   2.02037   2.02093   2.02093   2.02093
 Alpha virt. eigenvalues --    2.02159   2.02160   2.02295   2.02295   2.02296
 Alpha virt. eigenvalues --    2.02703   2.02703   2.02704   2.04616   2.06124
 Alpha virt. eigenvalues --    2.06124   2.06125   2.06742   2.06742   2.06742
 Alpha virt. eigenvalues --    2.06766   2.06766   2.06767   2.06767   2.06767
 Alpha virt. eigenvalues --    2.06767   2.06930   2.06931   2.06931   2.09154
 Alpha virt. eigenvalues --    2.09155   2.12727   2.12727   2.12728   2.14283
 Alpha virt. eigenvalues --    2.14283   2.14284   2.16699   2.19512   2.19943
 Alpha virt. eigenvalues --    2.19957   2.19957   2.19957   2.19960   2.19961
 Alpha virt. eigenvalues --    2.20215   2.20215   2.20216   2.20880   2.20880
 Alpha virt. eigenvalues --    2.20880   2.20896   2.20896   2.20896   2.21168
 Alpha virt. eigenvalues --    2.21168   2.22999   2.22999   2.22999   2.23012
 Alpha virt. eigenvalues --    2.23012   2.23012   2.25827   2.25828   2.25828
 Alpha virt. eigenvalues --    2.25828   2.25830   2.25830   2.25870   2.25871
 Alpha virt. eigenvalues --    2.25871   2.28891   2.28891   2.28892   2.41634
 Alpha virt. eigenvalues --    2.41634   2.41675   2.41728   2.41728   2.41728
 Alpha virt. eigenvalues --    2.43629   2.43629   2.43629   2.43706   2.43706
 Alpha virt. eigenvalues --    2.43706   2.51255   2.51714   2.51714   2.51714
 Alpha virt. eigenvalues --    2.51988   2.51988   2.51988   2.52265   2.52266
 Alpha virt. eigenvalues --    2.52266   2.52431   2.52717   2.52717   2.52745
 Alpha virt. eigenvalues --    2.52745   2.52745   2.53611   2.53611   2.53695
 Alpha virt. eigenvalues --    2.53695   2.53695   2.53698   2.54567   2.54568
 Alpha virt. eigenvalues --    2.56519   2.56519   2.56520   2.57853   2.57853
 Alpha virt. eigenvalues --    2.57854   2.58828   2.58828   2.61075   2.61075
 Alpha virt. eigenvalues --    2.61075   2.61409   2.61409   2.61409   2.62421
 Alpha virt. eigenvalues --    2.62421   2.62421   2.62921   2.62921   2.62964
 Alpha virt. eigenvalues --    2.62968   2.62968   2.62968   2.63491   2.63491
 Alpha virt. eigenvalues --    2.63491   2.64927   2.64927   2.64928   2.66523
 Alpha virt. eigenvalues --    2.72097   2.72098   2.72098   2.72503   2.72503
 Alpha virt. eigenvalues --    2.72503   2.72848   2.72849   2.75771   2.75896
 Alpha virt. eigenvalues --    2.75896   2.75896   2.76130   2.76130   2.78733
 Alpha virt. eigenvalues --    2.78820   2.78820   2.78824   2.78824   2.78824
 Alpha virt. eigenvalues --    2.84073   2.84073   2.84073   2.84229   2.84229
 Alpha virt. eigenvalues --    2.84229   2.87966   2.87967   2.87968   2.92199
 Alpha virt. eigenvalues --    2.92643   2.92643   2.92643   2.92732   2.92732
 Alpha virt. eigenvalues --    2.96329   2.96329   2.96329   2.97568   2.97568
 Alpha virt. eigenvalues --    2.97568   3.04132   3.04133   3.04133   3.04439
 Alpha virt. eigenvalues --    3.04439   3.04439   3.06318   3.06318   3.06354
 Alpha virt. eigenvalues --    3.06355   3.06355   3.06398   3.14105   3.14105
 Alpha virt. eigenvalues --    3.14106   3.15186   3.15186   3.15186   3.21565
 Alpha virt. eigenvalues --    3.21566   3.22939   3.22940   3.22940   3.24114
 Alpha virt. eigenvalues --    3.46929   3.46929   3.47203   3.47203   3.47203
 Alpha virt. eigenvalues --    3.47949   3.51620   3.51621   3.51621   3.51624
 Alpha virt. eigenvalues --    3.51624   3.51624   3.57678   3.57679   3.58291
 Alpha virt. eigenvalues --    3.58291   3.58291   3.58330   6.40298   6.40321
 Alpha virt. eigenvalues --    6.40321   6.40321   6.40336   6.40336   6.40336
 Alpha virt. eigenvalues --    6.40372   6.40372   6.40392   6.40392   6.40392
 Alpha virt. eigenvalues --    6.40791   6.40791   6.40791   6.40925   6.40925
 Alpha virt. eigenvalues --    6.40925   6.40972   6.41141   6.41141   6.41197
 Alpha virt. eigenvalues --    6.41197   6.41198   6.43181   6.43181   6.43181
 Alpha virt. eigenvalues --    6.43445
          Condensed to atoms (all electrons):
 Mulliken charges:
               1
     1  O   -0.734529
     2  Zn   0.793268
     3  Zn   0.793264
     4  Zn   0.793255
     5  Zn   0.793273
     6  O   -0.353387
     7  O   -0.353388
     8  O   -0.353393
     9  O   -0.353388
    10  O   -0.353398
    11  O   -0.353390
    12  O   -0.353392
    13  O   -0.353388
    14  O   -0.353380
    15  O   -0.353380
    16  O   -0.353382
    17  O   -0.353397
    18  C    0.271860
    19  C    0.271867
    20  C    0.271861
    21  C    0.271867
    22  C    0.271860
    23  C    0.271864
    24  C    0.014911
    25  C    0.007683
    26  C    0.016264
    27  C    0.007693
    28  C    0.014910
    29  C   -0.052978
    30  H    0.007804
    31  H    0.000722
    32  H    0.000719
    33  H    0.007813
    34  H    0.002948
    35  C    0.007689
    36  C    0.014910
    37  C   -0.052979
    38  C    0.014911
    39  C    0.007689
    40  C    0.016263
    41  H    0.000720
    42  H    0.007809
    43  H    0.007808
    44  H    0.000720
    45  H    0.002948
    46  C   -0.052980
    47  C    0.014912
    48  C    0.007688
    49  C    0.016263
    50  C    0.007690
    51  C    0.014913
    52  H    0.007808
    53  H    0.000721
    54  H    0.002949
    55  H    0.000721
    56  H    0.007810
    57  C    0.007689
    58  C    0.014910
    59  C   -0.052980
    60  C    0.014913
    61  C    0.007689
    62  C    0.016263
    63  H    0.000720
    64  H    0.007808
    65  H    0.007809
    66  H    0.000721
    67  H    0.002949
    68  C    0.007688
    69  C    0.014911
    70  C   -0.052980
    71  C    0.014911
    72  C    0.007690
    73  C    0.016263
    74  H    0.000720
    75  H    0.007807
    76  H    0.007811
    77  H    0.000720
    78  H    0.002948
    79  C    0.007688
    80  C    0.016262
    81  C    0.007691
    82  C    0.014913
    83  C   -0.052980
    84  C    0.014913
    85  H    0.000722
    86  H    0.002950
    87  H    0.000721
    88  H    0.007809
    89  H    0.007811
 Sum of Mulliken charges =   0.00000
 Mulliken charges with hydrogens summed into heavy atoms:
               1
     1  O   -0.734529
     2  Zn   0.793268
     3  Zn   0.793264
     4  Zn   0.793255
     5  Zn   0.793273
     6  O   -0.353387
     7  O   -0.353388
     8  O   -0.353393
     9  O   -0.353388
    10  O   -0.353398
    11  O   -0.353390
    12  O   -0.353392
    13  O   -0.353388
    14  O   -0.353380
    15  O   -0.353380
    16  O   -0.353382
    17  O   -0.353397
    18  C    0.271860
    19  C    0.271867
    20  C    0.271861
    21  C    0.271867
    22  C    0.271860
    23  C    0.271864
    24  C    0.022715
    25  C    0.008405
    26  C    0.019213
    27  C    0.008413
    28  C    0.022724
    29  C   -0.052978
    35  C    0.008409
    36  C    0.022719
    37  C   -0.052979
    38  C    0.022719
    39  C    0.008408
    40  C    0.019211
    46  C   -0.052980
    47  C    0.022720
    48  C    0.008409
    49  C    0.019212
    50  C    0.008411
    51  C    0.022723
    57  C    0.008409
    58  C    0.022717
    59  C   -0.052980
    60  C    0.022721
    61  C    0.008410
    62  C    0.019212
    68  C    0.008408
    69  C    0.022719
    70  C   -0.052980
    71  C    0.022722
    72  C    0.008410
    73  C    0.019211
    79  C    0.008410
    80  C    0.019212
    81  C    0.008412
    82  C    0.022722
    83  C   -0.052980
    84  C    0.022724
 Electronic spatial extent (au):  <R**2>=          48156.4869
 Charge=              0.0000 electrons
 Dipole moment (field-independent basis, Debye):
    X=             -0.0004    Y=             -0.0001    Z=              0.0000  Tot=              0.0004
 Quadrupole moment (field-independent basis, Debye-Ang):
   XX=           -330.5438   YY=           -330.5466   ZZ=           -330.5526
   XY=              0.0001   XZ=              0.0030   YZ=              0.0003
 Traceless Quadrupole moment (field-independent basis, Debye-Ang):
   XX=              0.0039   YY=              0.0011   ZZ=             -0.0049
   XY=              0.0001   XZ=              0.0030   YZ=              0.0003
 Octapole moment (field-independent basis, Debye-Ang**2):
  XXX=            -96.8504  YYY=            -12.2070  ZZZ=             99.6817  XYY=             74.7420
  XXY=            -61.6514  XXZ=            -43.6121  XZZ=             22.1059  YZZ=             73.8523
  YYZ=            -56.0685  XYZ=            -12.6691
 Hexadecapole moment (field-independent basis, Debye-Ang**3):
 XXXX=         -20378.4834 YYYY=         -19640.5905 ZZZZ=         -20470.3452 XXXY=           -227.3364
 XXXZ=           -479.9736 YYYX=            571.0603 YYYZ=            522.8358 ZZZX=            -35.6285
 ZZZY=           -349.1132 XXYY=          -6791.7884 XXZZ=          -5960.4350 YYZZ=          -6697.0718
 XXYZ=           -173.6834 YYXZ=            515.6866 ZZXY=           -343.7463
 N-N= 1.271234118628D+04 E-N=-4.850443966541D+04  KE= 9.669453856855D+03
 1\1\GINC-NID11130\FOpt\RPBEPBE\def2SVP\C42H30O13Zn4\DGRAHAM\03-Feb-201
 8\0\\# opt Integral(superfinegrid) pbepbe/def2svp geom=connectivity Em
 piricalDispersion=GD3\\MOF-5 Node Optimization\\0,1\O,0.0053876806,-0.
 0003137887,-0.0022602276\Zn,1.446251066,0.3566320704,1.2995347351\Zn,-
 0.8515331813,-1.7277440809,0.4218916619\Zn,-1.3393787529,1.4421787993,
 0.092484679\Zn,0.7660970543,-0.0724404006,-1.8227871088\O,-0.692966858
 8,-2.9899997021,-1.0798934168\O,-3.1107941296,0.7349498578,0.577849988
 8\O,-1.5184006355,2.3647325159,-1.6368256954\O,-0.034939301,1.29917518
 74,-2.9849953445\O,2.710686903,0.2299732744,-1.7954135612\O,0.44628652
 82,-1.8246185524,-2.6602620675\O,-0.0223266607,-2.5673536349,1.9970688
 075\O,-2.7676233184,-1.4972599637,0.8082093105\O,-0.8455793138,2.78995
 89256,1.4391497388\O,1.5954136601,-1.099575864,2.615236799\O,3.1896507
 836,0.5316389307,0.4030383069\O,1.1147767316,2.0245251616,2.2904685267
 \C,0.9350323592,-2.1819035273,2.7448892932\C,3.5099177656,0.4531776707
 ,-0.8280628839\C,-0.1478907516,-2.864789163,-2.2251238154\C,-0.9254039
 329,2.180133945,-2.7497651676\C,0.1592805865,2.8649713164,2.2195197847
 \C,-3.4988354596,-0.4535284588,0.8254292141\C,2.3695874161,-2.72122640
 39,4.748618847\C,2.7272184766,-3.5647313994,5.8087427571\C,2.039211975
 1,-4.774105474,6.0083935345\C,0.9916326303,-5.1392566595,5.1452346513\
 C,0.6316560976,-4.2978734157,4.0842301352\C,1.3193140029,-3.0838722204
 ,3.8805179706\H,2.8928145886,-1.7704427944,4.5722173706\H,3.5475516741
 ,-3.2792110999,6.4849955073\H,0.4531243371,-6.0864731213,5.3020018936\
 H,-0.1841176498,-4.5618056907,3.3959531004\H,2.3211991374,-5.436158504
 2,6.8418630737\C,-0.7385129335,6.1260423802,3.9717811739\C,-0.79963787
 36,5.0200538713,3.113703309\C,0.2231926332,4.0497840394,3.1376733413\C
 ,1.3063645297,4.1977819994,4.0281881159\C,1.3646511557,5.3048725174,4.
 8850409057\C,0.3429835025,6.2698969417,4.8580533694\H,-1.5383764428,6.
 8820668241,3.9510200423\H,-1.6352484907,4.8857339696,2.4118588038\H,2.
 0933201095,3.429949419,4.0309037341\H,2.2114173047,5.4179876142,5.5792
 875257\H,0.3899044788,7.1394988001,5.5319183247\C,4.9587816216,0.64057
 10503,-1.1694503803\C,5.8997462926,0.8914516597,-0.1497322708\C,7.2525
 197837,1.0662889873,-0.4701739688\C,7.6736258572,0.991772008,-1.809173
 3705\C,6.738744646,0.7418426445,-2.8286521173\C,5.3852756564,0.5665945
 84,-2.5113932826\H,5.5463248714,0.9452531727,0.8900140431\H,7.98504966
 54,1.2620542731,0.3278616348\H,8.7370133091,1.1293296826,-2.0597501003
 \H,7.0690248939,0.6835797422,-3.8771300248\H,4.6354793607,0.3701154404
 ,-3.2911838182\C,-0.9117593405,-6.3388594539,-3.5883485765\C,-0.853202
 6147,-5.2338025086,-2.7288913215\C,-0.2114140773,-4.0489580101,-3.1441
 340466\C,0.3703740078,-3.9817323086,-4.4267819343\C,0.3101606748,-5.08
 84698095,-5.283956829\C,-0.3305598152,-6.2677830489,-4.8662213445\H,-1
 .4134139806,-7.262656333,-3.2616564792\H,-1.3003469311,-5.2653081625,-
 1.7249275881\H,0.8659341085,-3.0485790604,-4.7309517864\H,0.7651727171
 ,-5.0333010308,-6.2848098292\H,-0.3772390126,-7.1368786914,-5.54075596
 37\C,-1.0557334513,3.7770701669,-6.2057572501\C,-0.6951479215,2.934514
 602,-5.1458870786\C,-1.3103809373,3.0814256115,-3.8856941905\C,-2.2889
 450436,4.0790276305,-3.6975917127\C,-2.6473966437,4.9200312435,-4.7594
 142941\C,-2.0317002047,4.7703340583,-6.0141311316\H,-0.5738421826,3.66
 02357248,-7.1885676981\H,0.0653850055,2.1504714929,-5.2713456383\H,-2.
 7563459052,4.17676976,-2.7072102194\H,-3.4116685129,5.698043888,-4.609
 844848\H,-2.3142359185,5.4318727979,-6.8478235686\C,-7.1678450595,0.29
 32077994,1.5267207977\C,-7.6616279233,-0.9918719822,1.8105408785\C,-6.
 7997291232,-2.1016299313,1.7735115383\C,-5.4466561734,-1.9282907143,1.
 4535295217\C,-4.9473869072,-0.6408552917,1.1681785848\C,-5.8152727454,
 0.4697719899,1.2063794478\H,-7.8432365309,1.1619902091,1.5558584537\H,
 -8.7247769241,-1.1293593845,2.0621665212\H,-7.1869178758,-3.1078282911
 ,1.9958538229\H,-4.7531680146,-2.7807576852,1.4182312433\H,-5.40578540
 28,1.4648814966,0.9806559304\\Version=ES64L-G09RevD.01\State=1-A\HF=-9
 707.7385095\RMSD=4.947e-09\RMSF=1.952e-06\Dipole=-0.0000312,-0.0001436
 ,0.0000636\Quadrupole=-0.0008784,0.0018945,-0.0010161,0.0023451,-0.002
 8332,0.0003635\PG=C01 [X(C42H30O13Zn4)]\\@


 GOD DOES NOT PLAY WITH DICE.
               -- A. EINSTEIN
 Job cpu time:       0 days  2 hours 41 minutes 29.1 seconds.
 File lengths (MBytes):  RWF=    642 Int=      0 D2E=      0 Chk=     76 Scr=      1
 Normal termination of Gaussian 09 at Sat Feb  3 08:19:01 2018.
