 Entering Gaussian System, Link 0=g09
 Initial command:
 /panfs/roc/msisoft/gaussian/g09.e01_mesabi/g09/l1.exe "/scratch/graha682/4575959.mesabim3.msi.umn.edu/Gau-7995.inp" -scrdir="/scratch/graha682/4575959.mesabim3.msi.umn.edu/"
 Entering Link 1 = /panfs/roc/msisoft/gaussian/g09.e01_mesabi/g09/l1.exe PID=      7996.
  
 Copyright (c) 1988,1990,1992,1993,1995,1998,2003,2009,2015,
            Gaussian, Inc.  All Rights Reserved.
  
 This is part of the Gaussian(R) 09 program.  It is based on
 the Gaussian(R) 03 system (copyright 2003, Gaussian, Inc.),
 the Gaussian(R) 98 system (copyright 1998, Gaussian, Inc.),
 the Gaussian(R) 94 system (copyright 1995, Gaussian, Inc.),
 the Gaussian 92(TM) system (copyright 1992, Gaussian, Inc.),
 the Gaussian 90(TM) system (copyright 1990, Gaussian, Inc.),
 the Gaussian 88(TM) system (copyright 1988, Gaussian, Inc.),
 the Gaussian 86(TM) system (copyright 1986, Carnegie Mellon
 University), and the Gaussian 82(TM) system (copyright 1983,
 Carnegie Mellon University). Gaussian is a federally registered
 trademark of Gaussian, Inc.
  
 This software contains proprietary and confidential information,
 including trade secrets, belonging to Gaussian, Inc.
  
 This software is provided under written license and may be
 used, copied, transmitted, or stored only in accord with that
 written license.
  
 The following legend is applicable only to US Government
 contracts under FAR:
  
                    RESTRICTED RIGHTS LEGEND
  
 Use, reproduction and disclosure by the US Government is
 subject to restrictions as set forth in subparagraphs (a)
 and (c) of the Commercial Computer Software - Restricted
 Rights clause in FAR 52.227-19.
  
 Gaussian, Inc.
 340 Quinnipiac St., Bldg. 40, Wallingford CT 06492
  
  
 ---------------------------------------------------------------
 Warning -- This program may not be used in any manner that
 competes with the business of Gaussian, Inc. or will provide
 assistance to any competitor of Gaussian, Inc.  The licensee
 of this program is prohibited from giving any competitor of
 Gaussian, Inc. access to this program.  By using this program,
 the user acknowledges that Gaussian, Inc. is engaged in the
 business of creating and licensing software in the field of
 computational chemistry and represents and warrants to the
 licensee that it is not a competitor of Gaussian, Inc. and that
 it will not use this program in any manner prohibited above.
 ---------------------------------------------------------------
  

 Cite this work as:
 Gaussian 09, Revision E.01,
 M. J. Frisch, G. W. Trucks, H. B. Schlegel, G. E. Scuseria, 
 M. A. Robb, J. R. Cheeseman, G. Scalmani, V. Barone, B. Mennucci, 
 G. A. Petersson, H. Nakatsuji, M. Caricato, X. Li, H. P. Hratchian, 
 A. F. Izmaylov, J. Bloino, G. Zheng, J. L. Sonnenberg, M. Hada, 
 M. Ehara, K. Toyota, R. Fukuda, J. Hasegawa, M. Ishida, T. Nakajima, 
 Y. Honda, O. Kitao, H. Nakai, T. Vreven, J. A. Montgomery, Jr., 
 J. E. Peralta, F. Ogliaro, M. Bearpark, J. J. Heyd, E. Brothers, 
 K. N. Kudin, V. N. Staroverov, T. Keith, R. Kobayashi, J. Normand, 
 K. Raghavachari, A. Rendell, J. C. Burant, S. S. Iyengar, J. Tomasi, 
 M. Cossi, N. Rega, J. M. Millam, M. Klene, J. E. Knox, J. B. Cross, 
 V. Bakken, C. Adamo, J. Jaramillo, R. Gomperts, R. E. Stratmann, 
 O. Yazyev, A. J. Austin, R. Cammi, C. Pomelli, J. W. Ochterski, 
 R. L. Martin, K. Morokuma, V. G. Zakrzewski, G. A. Voth, 
 P. Salvador, J. J. Dannenberg, S. Dapprich, A. D. Daniels, 
 O. Farkas, J. B. Foresman, J. V. Ortiz, J. Cioslowski, 
 and D. J. Fox, Gaussian, Inc., Wallingford CT, 2013.
 
 ******************************************
 Gaussian 09:  ES64L-G09RevE.01 30-Nov-2015
                 4-Dec-2017 
 ******************************************
 %LindaWorkers=in-cn0572
 %NProcShared=24
 Will use up to   24 processors via shared memory.
 %Mem=59800mb
 %chk=20171201_def2svp_m06_60c12h24.chk
 SetLPE:  input flags=" -workerwait 900 -opt "Tsnet.Node.lindarsharg: ssh " "
 SetLPE:    new flags=" -workerwait 900 -opt "Tsnet.Node.lindarsharg: ssh "  -nodelist 'in-cn0572'"
 Will use up to    1 processors via Linda.
 -----------------------------
 # hf/sto-3g geom=connectivity
 -----------------------------
 1/38=1,57=2/1;
 2/12=2,17=6,18=5,40=1/2;
 3/6=3,11=9,16=1,25=1,30=1/1,2,3;
 4//1;
 5/5=2,38=5/2;
 6/7=2,8=2,9=2,10=2,28=1/1;
 99/5=1,9=1/99;
 -------------------
 Title Card Required
 -------------------
 Symbolic Z-matrix:
 Charge =  0 Multiplicity = 1
 C                    -6.85444  -0.13488  -0.16841 
 H                    -7.04021  -0.81833   0.67765 
 H                    -6.88444  -0.74368  -1.08813 
 H                    -7.69705   0.57265  -0.21285 
 C                    -5.52036   0.56989  -0.02104 
 H                    -5.36871   1.27332  -0.86199 
 H                    -5.52345   1.19984   0.8891 
 C                    -4.34402  -0.3886    0.0425 
 H                    -4.3351   -1.02083  -0.8681 
 H                    -4.48926  -1.09459   0.8849 
 C                    -3.00139   0.30277   0.18946 
 H                    -3.00709   0.93031   1.10287 
 H                    -2.85037   1.00933  -0.6497 
 C                    -1.82468  -0.66362   0.24693 
 H                    -1.80066  -1.27769  -0.67321 
 H                    -1.99464  -1.37372   1.0812 
 C                    -0.51189   0.02301   0.42809 
 H                    -0.40546   0.63496   1.33864 
 C                     0.51189  -0.02301  -0.42809 
 H                     0.34664   0.32564  -1.46059 
 C                     1.87633  -0.54382  -0.12028 
 H                     1.93651  -0.82352   0.94857 
 H                     2.62609   0.25972  -0.26629 
 C                     2.27083  -1.73402  -0.98612 
 H                     2.18694  -1.45504  -2.05537 
 H                     1.53668  -2.54975  -0.83836 
 C                     3.67095  -2.2471   -0.70568 
 H                     4.4011   -1.42625  -0.85485 
 H                     3.7556   -2.52006   0.36545 
 C                     4.06777  -3.4371   -1.56182 
 H                     3.33432  -4.25207  -1.41056 
 H                     3.9796   -3.15998  -2.62982 
 C                     5.46825  -3.93888  -1.2702 
 H                     5.74142  -4.80106  -1.89836 
 H                     6.21937  -3.14996  -1.44592 
 H                     5.56859  -4.25164  -0.21686 
 
                          Input orientation:                          
 ---------------------------------------------------------------------
 Center     Atomic      Atomic             Coordinates (Angstroms)
 Number     Number       Type             X           Y           Z
 ---------------------------------------------------------------------
      1          6           0       -6.854443   -0.134877   -0.168414
      2          1           0       -7.040212   -0.818328    0.677653
      3          1           0       -6.884443   -0.743683   -1.088126
      4          1           0       -7.697052    0.572652   -0.212848
      5          6           0       -5.520363    0.569890   -0.021040
      6          1           0       -5.368713    1.273324   -0.861988
      7          1           0       -5.523451    1.199843    0.889097
      8          6           0       -4.344023   -0.388597    0.042497
      9          1           0       -4.335099   -1.020835   -0.868101
     10          1           0       -4.489260   -1.094591    0.884904
     11          6           0       -3.001393    0.302765    0.189464
     12          1           0       -3.007087    0.930311    1.102873
     13          1           0       -2.850369    1.009328   -0.649702
     14          6           0       -1.824677   -0.663624    0.246928
     15          1           0       -1.800656   -1.277687   -0.673205
     16          1           0       -1.994641   -1.373719    1.081199
     17          6           0       -0.511885    0.023005    0.428088
     18          1           0       -0.405457    0.634962    1.338635
     19          6           0        0.511885   -0.023005   -0.428088
     20          1           0        0.346640    0.325640   -1.460587
     21          6           0        1.876328   -0.543823   -0.120280
     22          1           0        1.936513   -0.823518    0.948572
     23          1           0        2.626086    0.259717   -0.266285
     24          6           0        2.270832   -1.734018   -0.986116
     25          1           0        2.186937   -1.455045   -2.055367
     26          1           0        1.536676   -2.549752   -0.838362
     27          6           0        3.670952   -2.247104   -0.705680
     28          1           0        4.401099   -1.426249   -0.854854
     29          1           0        3.755601   -2.520058    0.365452
     30          6           0        4.067768   -3.437095   -1.561816
     31          1           0        3.334319   -4.252070   -1.410559
     32          1           0        3.979597   -3.159981   -2.629821
     33          6           0        5.468253   -3.938876   -1.270199
     34          1           0        5.741423   -4.801056   -1.898360
     35          1           0        6.219367   -3.149958   -1.445925
     36          1           0        5.568591   -4.251636   -0.216858
 ---------------------------------------------------------------------
                    Distance matrix (angstroms):
                    1          2          3          4          5
     1  C    0.000000
     2  H    1.103379   0.000000
     3  H    1.103365   1.774207   0.000000
     4  H    1.101164   1.777430   1.777409   0.000000
     5  C    1.515977   2.173767   2.173674   2.185125   0.000000
     6  H    2.161358   3.088594   2.533159   2.516642   1.106802
     7  H    2.161330   2.533434   3.088528   2.516385   1.106887
     8  C    2.532008   2.803128   2.803235   3.497428   1.518720
     9  H    2.760720   3.122179   2.573787   3.777735   2.157028
    10  H    2.761272   2.574224   3.122961   3.778186   2.157407
    11  C    3.894304   4.219862   4.219641   4.720583   2.541826
    12  H    4.189623   4.416407   4.757796   4.884139   2.776624
    13  H    4.192070   4.759935   4.420296   4.885884   2.777983
    14  C    5.074508   5.235577   5.233547   6.018684   3.905312
    15  H    5.205919   5.430357   5.128568   6.197029   4.204174
    16  H    5.168553   5.092062   5.386379   6.162825   4.174118
    17  C    6.372502   6.587046   6.595166   7.234607   5.058226
    18  H    6.667328   6.824143   7.054579   7.455088   5.292940
    19  C    7.371752   7.673941   7.460610   8.233334   6.074967
    20  H    7.330578   7.774723   7.319203   8.143638   6.045964
    21  C    8.740475   8.956379   8.816336   9.638708   7.480724
    22  H    8.888351   8.980813   9.053384   9.803252   7.647661
    23  H    9.489242   9.771925   9.598562  10.328018   8.156040
    24  C    9.300352   9.502745   9.209247  10.260477   8.181815
    25  H    9.330058   9.644433   9.150493  10.256689   8.224434
    26  H    8.757358   8.880266   8.616235   9.767415   7.758993
    27  C   10.748679  10.894221  10.668782  11.722859   9.637658
    28  H   11.350158  11.559488  11.308571  12.278968  10.154567
    29  H   10.887936  10.933569  10.884803  11.876976   9.784716
    30  C   11.495255  11.630149  11.288479  12.502350  10.505340
    31  H   11.059162  11.125740  10.809063  12.099735  10.177792
    32  H   11.514608  11.741333  11.235777  12.494736  10.534083
    33  C   12.943461  13.038161  12.760545  13.956975  11.943159
    34  H   13.543330  13.633347  13.286506  14.570871  12.617417
    35  H   13.477658  13.629472  13.327716  14.458389  12.397130
    36  H   13.087468  13.098460  12.966992  14.115631  12.093401
                    6          7          8          9         10
     6  H    0.000000
     7  H    1.759444   0.000000
     8  C    2.151758   2.151958   0.000000
     9  H    2.516259   3.071048   1.108600   0.000000
    10  H    3.071171   2.516743   1.108680   1.761315   0.000000
    11  C    2.766178   2.766769   1.517312   2.156185   2.156383
    12  H    3.091216   2.539771   2.156690   3.074951   2.518844
    13  H    2.541027   3.090237   2.159707   2.524615   3.076923
    14  C    4.188276   4.191160   2.542545   2.770038   2.773580
    15  H    4.390254   4.736892   2.787728   2.554870   3.112847
    16  H    4.708203   4.371799   2.751175   3.066275   2.517850
    17  C    5.178453   5.168488   3.873419   4.169733   4.156587
    18  H    5.466640   5.168659   4.270825   4.801399   4.458102
    19  C    6.037398   6.297270   4.892336   4.968152   5.280501
    20  H    5.824232   6.383041   4.977119   4.907414   5.559165
    21  C    7.506182   7.669155   6.224416   6.274440   6.467955
    22  H    7.812886   7.729721   6.360445   6.532407   6.431803
    23  H    8.080784   8.284546   7.007002   7.103527   7.333998
    24  C    8.211100   8.536675   6.828215   6.645366   7.043325
    25  H    8.121329   8.669970   6.942030   6.643424   7.303884
    26  H    7.893089   8.178568   6.326857   6.067636   6.434209
    27  C    9.702236   9.947955   8.261576   8.101047   8.393289
    28  H   10.135925  10.413185   8.852069   8.745610   9.065056
    29  H    9.957382  10.010628   8.381607   8.320382   8.383288
    30  C   10.570003  10.931589   9.089850   8.770845   9.203069
    31  H   10.323452  10.652317   8.717495   8.339970   8.743409
    32  H   10.496205  11.031716   9.170850   8.764346   9.398971
    33  C   12.032186  12.324226  10.517054  10.236326  10.577641
    34  H   12.704616  13.064382  11.178235  10.811466  11.231710
    35  H   12.417327  12.738401  11.019334  10.782569  11.150425
    36  H   12.270533  12.408672  10.641910  10.437685  10.599112
                   11         12         13         14         15
    11  C    0.000000
    12  H    1.108225   0.000000
    13  H    1.107357   1.761341   0.000000
    14  C    1.523768   2.161334   2.157489   0.000000
    15  H    2.164208   3.079803   2.516523   1.106479   0.000000
    16  H    2.149265   2.516758   3.067116   1.108662   1.767706
    17  C    2.516517   2.739447   2.757349   1.492549   2.136721
    18  H    2.858292   2.628934   3.173520   2.211862   3.106816
    19  C    3.581985   3.954215   3.524142   2.515067   2.642377
    20  H    3.732629   4.264322   3.368357   2.934087   2.793118
    21  C    4.960324   5.245657   5.003422   3.721106   3.790052
    22  H    5.121296   5.247752   5.369175   3.829415   4.099129
    23  H    5.646068   5.835831   5.540802   4.574411   4.703747
    24  C    5.772940   6.270483   5.819435   4.409006   4.108913
    25  H    5.920129   6.530106   5.781304   4.692542   4.224065
    26  H    5.457779   6.043593   5.652327   4.004251   3.575361
    27  C    7.198840   7.613346   7.289383   5.798000   5.556916
    28  H    7.673134   8.016689   7.652315   6.368345   6.206193
    29  H    7.325044   7.627764   7.558171   5.882168   5.787425
    30  C    8.186975   8.730886   8.274252   6.759038   6.315938
    31  H    7.965415   8.566670   8.155463   6.499188   5.979850
    32  H    8.286929   8.915001   8.243327   6.942411   6.386133
    33  C    9.584208  10.058422   9.698929   8.137308   7.763721
    34  H   10.336577  10.880827  10.446942   8.886308   8.414160
    35  H    9.980892  10.405403  10.009682   8.588029   8.271836
    36  H    9.713510  10.106261   9.937000   8.230998   7.959800
                   16         17         18         19         20
    16  H    0.000000
    17  C    2.139149   0.000000
    18  H    2.574214   1.102231   0.000000
    19  C    3.222584   1.335387   2.096604   0.000000
    20  H    3.850986   2.096604   2.914957   1.102231   0.000000
    21  C    4.137231   2.515067   2.953728   1.492549   2.211862
    22  H    3.971685   2.642377   2.786420   2.136721   3.106816
    23  H    5.082809   3.222584   3.450628   2.139149   2.574214
    24  C    4.753722   3.581985   4.263691   2.516517   2.858292
    25  H    5.227834   3.954215   4.754775   2.739447   2.628934
    26  H    4.187836   3.524142   4.318981   2.757349   3.173520
    27  C    6.004555   4.892336   5.394686   3.873419   4.270825
    28  H    6.682556   5.280501   5.671241   4.156587   4.458102
    29  H    5.906917   4.968152   5.311840   4.169733   4.801399
    30  C    6.927904   6.074967   6.708502   5.058226   5.292940
    31  H    6.549166   6.037398   6.739961   5.178453   5.466640
    32  H    7.256302   6.297270   7.027014   5.168488   5.168659
    33  C    8.234312   7.371752   7.888376   6.372502   6.667328
    34  H    8.970568   8.233334   8.821143   7.234607   7.455088
    35  H    8.775609   7.673941   8.122049   6.587046   6.824142
    36  H    8.195720   7.460610   7.873223   6.595166   7.054579
                   21         22         23         24         25
    21  C    0.000000
    22  H    1.106479   0.000000
    23  H    1.108662   1.767706   0.000000
    24  C    1.523768   2.164208   2.149265   0.000000
    25  H    2.161334   3.079803   2.516758   1.108225   0.000000
    26  H    2.157489   2.516523   3.067116   1.107357   1.761341
    27  C    2.542545   2.787728   2.751175   1.517312   2.156690
    28  H    2.773580   3.112847   2.517850   2.156383   2.518844
    29  H    2.770038   2.554870   3.066275   2.156185   3.074951
    30  C    3.905312   4.204174   4.174118   2.541826   2.776624
    31  H    4.188276   4.390254   4.708203   2.766178   3.091216
    32  H    4.191160   4.736892   4.371799   2.766769   2.539771
    33  C    5.074508   5.205919   5.168553   3.894304   4.189623
    34  H    6.018684   6.197029   6.162825   4.720583   4.884139
    35  H    5.235577   5.430357   5.092062   4.219862   4.416406
    36  H    5.233547   5.128568   5.386379   4.219641   4.757796
                   26         27         28         29         30
    26  H    0.000000
    27  C    2.159707   0.000000
    28  H    3.076923   1.108680   0.000000
    29  H    2.524615   1.108600   1.761315   0.000000
    30  C    2.777983   1.518720   2.157407   2.157028   0.000000
    31  H    2.541027   2.151758   3.071171   2.516259   1.106802
    32  H    3.090237   2.151958   2.516743   3.071048   1.106887
    33  C    4.192070   2.532008   2.761272   2.760720   1.515977
    34  H    4.885884   3.497428   3.778186   3.777735   2.185125
    35  H    4.759935   2.803128   2.574224   3.122179   2.173766
    36  H    4.420296   2.803235   3.122961   2.573787   2.173674
                   31         32         33         34         35
    31  H    0.000000
    32  H    1.759444   0.000000
    33  C    2.161358   2.161330   0.000000
    34  H    2.516642   2.516385   1.101164   0.000000
    35  H    3.088593   2.533433   1.103378   1.777429   0.000000
    36  H    2.533159   3.088528   1.103365   1.777409   1.774207
                   36
    36  H    0.000000
 Stoichiometry    C12H24
 Framework group  C1[X(C12H24)]
 Deg. of freedom   102
 Full point group                 C1      NOp   1
 Largest Abelian subgroup         C1      NOp   1
 Largest concise Abelian subgroup C1      NOp   1
                         Standard orientation:                         
 ---------------------------------------------------------------------
 Center     Atomic      Atomic             Coordinates (Angstroms)
 Number     Number       Type             X           Y           Z
 ---------------------------------------------------------------------
      1          6           0        6.450339   -1.191521    0.068239
      2          1           0        6.516998   -1.520614   -0.982807
      3          1           0        6.192789   -2.080215    0.669327
      4          1           0        7.455535   -0.864136    0.376398
      5          6           0        5.414081   -0.097728    0.235483
      6          1           0        5.386309    0.239746    1.289215
      7          1           0        5.708233    0.795077   -0.348959
      8          6           0        4.019694   -0.528820   -0.184466
      9          1           0        3.719276   -1.421918    0.399588
     10          1           0        4.040788   -0.865909   -1.240448
     11          6           0        2.971275    0.555924   -0.022038
     12          1           0        3.267544    1.447058   -0.610483
     13          1           0        2.945234    0.896592    1.031293
     14          6           0        1.573482    0.115781   -0.439553
     15          1           0        1.263129   -0.760371    0.160727
     16          1           0        1.615857   -0.235872   -1.490112
     17          6           0        0.555767    1.199939   -0.310870
     18          1           0        0.740818    2.112290   -0.901027
     19          6           0       -0.524436    1.160330    0.473255
     20          1           0       -0.379816    1.015717    1.556346
     21          6           0       -1.938431    1.262175    0.006406
     22          1           0       -1.958769    1.446891   -1.084356
     23          1           0       -2.424570    2.142902    0.472366
     24          6           0       -2.766214    0.025487    0.333897
     25          1           0       -2.723674   -0.167584    1.424344
     26          1           0       -2.298311   -0.860163   -0.138257
     27          6           0       -4.214779    0.134989   -0.104174
     28          1           0       -4.677510    1.023256    0.371254
     29          1           0       -4.256019    0.334240   -1.193941
     30          6           0       -5.043597   -1.097080    0.214538
     31          1           0       -4.575743   -1.980508   -0.260517
     32          1           0       -4.997423   -1.292654    1.303031
     33          6           0       -6.487863   -0.973389   -0.229288
     34          1           0       -7.075670   -1.873639    0.008606
     35          1           0       -6.983015   -0.116255    0.258143
     36          1           0       -6.557892   -0.810439   -1.318305
 ---------------------------------------------------------------------
 Rotational constants (GHZ):      2.9364673      0.1751637      0.1686848
 Standard basis: STO-3G (5D, 7F)
 There are    84 symmetry adapted cartesian basis functions of A   symmetry.
 There are    84 symmetry adapted basis functions of A   symmetry.
    84 basis functions,   252 primitive gaussians,    84 cartesian basis functions
    48 alpha electrons       48 beta electrons
       nuclear repulsion energy       655.8803341004 Hartrees.
 NAtoms=   36 NActive=   36 NUniq=   36 SFac= 1.00D+00 NAtFMM=   60 NAOKFM=F Big=F
 Integral buffers will be    131072 words long.
 Raffenetti 1 integral format.
 Two-electron integral symmetry is turned on.
 One-electron integrals computed using PRISM.
 NBasis=    84 RedAO= T EigKep=  1.87D-01  NBF=    84
 NBsUse=    84 1.00D-06 EigRej= -1.00D+00 NBFU=    84
 ExpMin= 1.69D-01 ExpMax= 7.16D+01 ExpMxC= 7.16D+01 IAcc=1 IRadAn=         1 AccDes= 0.00D+00
 Harris functional with IExCor=  205 and IRadAn=       1 diagonalized for initial guess.
 HarFok:  IExCor=  205 AccDes= 0.00D+00 IRadAn=         1 IDoV= 1 UseB2=F ITyADJ=14
 ICtDFT=  3500011 ScaDFX=  1.000000  1.000000  1.000000  1.000000
 FoFCou: FMM=F IPFlag=           0 FMFlag=      100000 FMFlg1=           0
         NFxFlg=           0 DoJE=T BraDBF=F KetDBF=T FulRan=T
         wScrn=  0.000000 ICntrl=     500 IOpCl=  0 I1Cent=   200000004 NGrid=           0
         NMat0=    1 NMatS0=      1 NMatT0=    0 NMatD0=    1 NMtDS0=    0 NMtDT0=    0
 Petite list used in FoFCou.
 Keep R1 ints in memory in canonical form, NReq=7308531.
 Requested convergence on RMS density matrix=1.00D-08 within 128 cycles.
 Requested convergence on MAX density matrix=1.00D-06.
 Requested convergence on             energy=1.00D-06.
 No special actions if energy rises.
 SCF Done:  E(RHF) =  -462.776646440     A.U. after   12 cycles
            NFock= 12  Conv=0.24D-08     -V/T= 2.0084

 **********************************************************************

            Population analysis using the SCF density.

 **********************************************************************

 Orbital symmetries:
       Occupied  (A) (A) (A) (A) (A) (A) (A) (A) (A) (A) (A) (A)
                 (A) (A) (A) (A) (A) (A) (A) (A) (A) (A) (A) (A)
                 (A) (A) (A) (A) (A) (A) (A) (A) (A) (A) (A) (A)
                 (A) (A) (A) (A) (A) (A) (A) (A) (A) (A) (A) (A)
       Virtual   (A) (A) (A) (A) (A) (A) (A) (A) (A) (A) (A) (A)
                 (A) (A) (A) (A) (A) (A) (A) (A) (A) (A) (A) (A)
                 (A) (A) (A) (A) (A) (A) (A) (A) (A) (A) (A) (A)
 The electronic state is 1-A.
 Alpha  occ. eigenvalues --  -11.04236 -11.04235 -11.04165 -11.04122 -11.03944
 Alpha  occ. eigenvalues --  -11.03861 -11.03465 -11.03452 -11.03416 -11.03255
 Alpha  occ. eigenvalues --  -11.00017 -10.99940  -1.05628  -1.04523  -1.01630
 Alpha  occ. eigenvalues --   -0.98574  -0.94313  -0.89417  -0.84801  -0.79173
 Alpha  occ. eigenvalues --   -0.76402  -0.75069  -0.74786  -0.68805  -0.62002
 Alpha  occ. eigenvalues --   -0.61435  -0.57916  -0.57457  -0.55924  -0.55086
 Alpha  occ. eigenvalues --   -0.53319  -0.53210  -0.51966  -0.51225  -0.49278
 Alpha  occ. eigenvalues --   -0.48350  -0.47093  -0.46246  -0.45330  -0.43695
 Alpha  occ. eigenvalues --   -0.42977  -0.42603  -0.42445  -0.41852  -0.41697
 Alpha  occ. eigenvalues --   -0.41519  -0.40123  -0.21244
 Alpha virt. eigenvalues --    0.24132   0.57034   0.57921   0.58052   0.58878
 Alpha virt. eigenvalues --    0.62490   0.63289   0.66266   0.66487   0.67023
 Alpha virt. eigenvalues --    0.67286   0.68414   0.69030   0.69519   0.70760
 Alpha virt. eigenvalues --    0.71372   0.72696   0.73895   0.74004   0.74322
 Alpha virt. eigenvalues --    0.74788   0.75565   0.76076   0.76532   0.77763
 Alpha virt. eigenvalues --    0.78093   0.78685   0.79424   0.80371   0.80572
 Alpha virt. eigenvalues --    0.80966   0.81456   0.82231   0.82711   0.91212
 Alpha virt. eigenvalues --    1.06556
          Condensed to atoms (all electrons):
               1          2          3          4          5          6
     1  C    4.726491   0.380219   0.380226   0.381549   0.368674  -0.022213
     2  H    0.380219   0.634148  -0.021879  -0.021568  -0.020998   0.001880
     3  H    0.380226  -0.021879   0.634054  -0.021565  -0.020999  -0.002226
     4  H    0.381549  -0.021568  -0.021565   0.629669  -0.019435  -0.002124
     5  C    0.368674  -0.020998  -0.020999  -0.019435   4.726475   0.379359
     6  H   -0.022213   0.001880  -0.002226  -0.002124   0.379359   0.646675
     7  H   -0.022226  -0.002222   0.001881  -0.002127   0.379306  -0.023883
     8  C   -0.022895  -0.002137  -0.002135   0.001242   0.367782  -0.023013
     9  H   -0.002214  -0.000005   0.000393   0.000009  -0.022791  -0.002346
    10  H   -0.002208   0.000393  -0.000005   0.000009  -0.022772   0.001946
    11  C    0.000719   0.000008   0.000008  -0.000015  -0.021717  -0.002213
    12  H    0.000007   0.000002  -0.000001  -0.000000  -0.002150   0.000004
    13  H    0.000007  -0.000001   0.000002  -0.000000  -0.002147   0.000388
    14  C   -0.000005  -0.000000  -0.000000   0.000000   0.000702   0.000007
    15  H   -0.000000   0.000000  -0.000000   0.000000   0.000007   0.000002
    16  H   -0.000000  -0.000000   0.000000   0.000000   0.000005  -0.000001
    17  C    0.000000   0.000000   0.000000  -0.000000  -0.000005  -0.000000
    18  H   -0.000000  -0.000000  -0.000000   0.000000   0.000000   0.000000
    19  C   -0.000000  -0.000000  -0.000000   0.000000   0.000000  -0.000000
    20  H   -0.000000  -0.000000  -0.000000   0.000000   0.000000   0.000000
    21  C    0.000000   0.000000   0.000000  -0.000000  -0.000000  -0.000000
    22  H    0.000000   0.000000   0.000000  -0.000000  -0.000000  -0.000000
    23  H   -0.000000  -0.000000  -0.000000   0.000000   0.000000   0.000000
    24  C    0.000000   0.000000   0.000000  -0.000000  -0.000000  -0.000000
    25  H   -0.000000  -0.000000  -0.000000   0.000000   0.000000  -0.000000
    26  H   -0.000000  -0.000000  -0.000000   0.000000   0.000000   0.000000
    27  C    0.000000   0.000000   0.000000   0.000000   0.000000   0.000000
    28  H    0.000000   0.000000   0.000000   0.000000  -0.000000  -0.000000
    29  H   -0.000000  -0.000000  -0.000000   0.000000   0.000000   0.000000
    30  C    0.000000   0.000000   0.000000   0.000000   0.000000  -0.000000
    31  H    0.000000   0.000000   0.000000   0.000000  -0.000000  -0.000000
    32  H    0.000000  -0.000000  -0.000000   0.000000   0.000000  -0.000000
    33  C    0.000000   0.000000   0.000000   0.000000   0.000000   0.000000
    34  H    0.000000   0.000000   0.000000   0.000000   0.000000   0.000000
    35  H    0.000000   0.000000   0.000000   0.000000   0.000000   0.000000
    36  H    0.000000   0.000000   0.000000   0.000000   0.000000   0.000000
               7          8          9         10         11         12
     1  C   -0.022226  -0.022895  -0.002214  -0.002208   0.000719   0.000007
     2  H   -0.002222  -0.002137  -0.000005   0.000393   0.000008   0.000002
     3  H    0.001881  -0.002135   0.000393  -0.000005   0.000008  -0.000001
     4  H   -0.002127   0.001242   0.000009   0.000009  -0.000015  -0.000000
     5  C    0.379306   0.367782  -0.022791  -0.022772  -0.021717  -0.002150
     6  H   -0.023883  -0.023013  -0.002346   0.001946  -0.002213   0.000004
     7  H    0.646971  -0.023020   0.001947  -0.002345  -0.002205   0.000392
     8  C   -0.023020   4.741473   0.378441   0.378362   0.367803  -0.022867
     9  H    0.001947   0.378441   0.651013  -0.023953  -0.022774   0.001934
    10  H   -0.002345   0.378362  -0.023953   0.651725  -0.022759  -0.002340
    11  C   -0.002205   0.367803  -0.022774  -0.022759   4.746481   0.378853
    12  H    0.000392  -0.022867   0.001934  -0.002340   0.378853   0.650465
    13  H    0.000004  -0.022683  -0.002284   0.001924   0.379536  -0.023958
    14  C    0.000007  -0.021981  -0.002230  -0.002238   0.357445  -0.022369
    15  H   -0.000001  -0.002038   0.000371  -0.000001  -0.021624   0.001882
    16  H    0.000002  -0.002221   0.000006   0.000453  -0.023564  -0.002299
    17  C   -0.000000   0.000786   0.000009   0.000007  -0.024904  -0.002469
    18  H   -0.000000  -0.000015  -0.000001   0.000001  -0.000258   0.000422
    19  C    0.000000  -0.000008  -0.000000  -0.000000   0.000818   0.000010
    20  H    0.000000  -0.000002  -0.000000  -0.000000   0.000085   0.000000
    21  C   -0.000000   0.000000   0.000000   0.000000  -0.000006  -0.000000
    22  H   -0.000000   0.000000  -0.000000   0.000000  -0.000001  -0.000000
    23  H    0.000000  -0.000000  -0.000000  -0.000000   0.000000   0.000000
    24  C   -0.000000   0.000000   0.000000  -0.000000  -0.000000   0.000000
    25  H    0.000000  -0.000000   0.000000  -0.000000   0.000000   0.000000
    26  H    0.000000  -0.000000  -0.000000  -0.000000   0.000000   0.000000
    27  C   -0.000000  -0.000000  -0.000000   0.000000   0.000000  -0.000000
    28  H   -0.000000   0.000000  -0.000000   0.000000   0.000000  -0.000000
    29  H    0.000000  -0.000000  -0.000000  -0.000000   0.000000  -0.000000
    30  C   -0.000000  -0.000000   0.000000  -0.000000  -0.000000   0.000000
    31  H   -0.000000   0.000000   0.000000   0.000000  -0.000000  -0.000000
    32  H    0.000000  -0.000000   0.000000  -0.000000  -0.000000   0.000000
    33  C    0.000000   0.000000  -0.000000   0.000000   0.000000  -0.000000
    34  H    0.000000   0.000000   0.000000  -0.000000  -0.000000   0.000000
    35  H    0.000000   0.000000   0.000000   0.000000   0.000000  -0.000000
    36  H    0.000000   0.000000  -0.000000   0.000000   0.000000  -0.000000
              13         14         15         16         17         18
     1  C    0.000007  -0.000005  -0.000000  -0.000000   0.000000  -0.000000
     2  H   -0.000001  -0.000000   0.000000  -0.000000   0.000000  -0.000000
     3  H    0.000002  -0.000000  -0.000000   0.000000   0.000000  -0.000000
     4  H   -0.000000   0.000000   0.000000   0.000000  -0.000000   0.000000
     5  C   -0.002147   0.000702   0.000007   0.000005  -0.000005   0.000000
     6  H    0.000388   0.000007   0.000002  -0.000001  -0.000000   0.000000
     7  H    0.000004   0.000007  -0.000001   0.000002  -0.000000  -0.000000
     8  C   -0.022683  -0.021981  -0.002038  -0.002221   0.000786  -0.000015
     9  H   -0.002284  -0.002230   0.000371   0.000006   0.000009  -0.000001
    10  H    0.001924  -0.002238  -0.000001   0.000453   0.000007   0.000001
    11  C    0.379536   0.357445  -0.021624  -0.023564  -0.024904  -0.000258
    12  H   -0.023958  -0.022369   0.001882  -0.002299  -0.002469   0.000422
    13  H    0.648482  -0.022497  -0.002410   0.001905  -0.002381  -0.000013
    14  C   -0.022497   4.728927   0.379539   0.379979   0.377993  -0.026654
    15  H   -0.002410   0.379539   0.639591  -0.023599  -0.022531   0.001694
    16  H    0.001905   0.379979  -0.023599   0.635075  -0.022058  -0.003050
    17  C   -0.002381   0.377993  -0.022531  -0.022058   4.883149   0.377928
    18  H   -0.000013  -0.026654   0.001694  -0.003050   0.377928   0.634907
    19  C    0.000050  -0.027252  -0.004218   0.000008   0.558005  -0.032191
    20  H    0.000056  -0.002681   0.000306  -0.000003  -0.031842   0.002597
    21  C   -0.000001   0.000995   0.000030  -0.000019  -0.027878  -0.002488
    22  H    0.000000   0.000022   0.000006  -0.000001  -0.004252   0.000339
    23  H    0.000000  -0.000019  -0.000002  -0.000002   0.001426   0.000112
    24  C    0.000000  -0.000010  -0.000003   0.000008  -0.000180  -0.000002
    25  H    0.000000  -0.000000  -0.000001   0.000000   0.000012  -0.000000
    26  H    0.000000  -0.000012   0.000001  -0.000002   0.000122   0.000003
    27  C   -0.000000   0.000000   0.000000  -0.000000   0.000000  -0.000000
    28  H   -0.000000   0.000000   0.000000  -0.000000  -0.000000   0.000000
    29  H   -0.000000   0.000000  -0.000000  -0.000000   0.000001  -0.000000
    30  C    0.000000  -0.000000  -0.000000   0.000000  -0.000000   0.000000
    31  H    0.000000   0.000000   0.000000   0.000000  -0.000000  -0.000000
    32  H    0.000000  -0.000000  -0.000000   0.000000   0.000000  -0.000000
    33  C   -0.000000   0.000000   0.000000  -0.000000   0.000000  -0.000000
    34  H    0.000000  -0.000000  -0.000000   0.000000  -0.000000   0.000000
    35  H   -0.000000   0.000000   0.000000  -0.000000  -0.000000  -0.000000
    36  H   -0.000000   0.000000   0.000000  -0.000000  -0.000000  -0.000000
              19         20         21         22         23         24
     1  C   -0.000000  -0.000000   0.000000   0.000000  -0.000000   0.000000
     2  H   -0.000000  -0.000000   0.000000   0.000000  -0.000000   0.000000
     3  H   -0.000000  -0.000000   0.000000   0.000000  -0.000000   0.000000
     4  H    0.000000   0.000000  -0.000000  -0.000000   0.000000  -0.000000
     5  C    0.000000   0.000000  -0.000000  -0.000000   0.000000  -0.000000
     6  H   -0.000000   0.000000  -0.000000  -0.000000   0.000000  -0.000000
     7  H    0.000000   0.000000  -0.000000  -0.000000   0.000000  -0.000000
     8  C   -0.000008  -0.000002   0.000000   0.000000  -0.000000   0.000000
     9  H   -0.000000  -0.000000   0.000000  -0.000000  -0.000000   0.000000
    10  H   -0.000000  -0.000000   0.000000   0.000000  -0.000000  -0.000000
    11  C    0.000818   0.000085  -0.000006  -0.000001   0.000000  -0.000000
    12  H    0.000010   0.000000  -0.000000  -0.000000   0.000000   0.000000
    13  H    0.000050   0.000056  -0.000001   0.000000   0.000000   0.000000
    14  C   -0.027252  -0.002681   0.000995   0.000022  -0.000019  -0.000010
    15  H   -0.004218   0.000306   0.000030   0.000006  -0.000002  -0.000003
    16  H    0.000008  -0.000003  -0.000019  -0.000001  -0.000002   0.000008
    17  C    0.558005  -0.031842  -0.027878  -0.004252   0.001426  -0.000180
    18  H   -0.032191   0.002597  -0.002488   0.000339   0.000112  -0.000002
    19  C    4.882632   0.376962   0.378593  -0.022671  -0.025320  -0.022185
    20  H    0.376962   0.636049  -0.026566   0.001693  -0.000038  -0.002716
    21  C    0.378593  -0.026566   4.730535   0.379545   0.370000   0.366314
    22  H   -0.022671   0.001693   0.379545   0.639484  -0.022401  -0.022551
    23  H   -0.025320  -0.000038   0.370000  -0.022401   0.656845  -0.023704
    24  C   -0.022185  -0.002716   0.366314  -0.022551  -0.023704   4.737281
    25  H   -0.002281   0.000405  -0.022492   0.001886  -0.002221   0.378494
    26  H   -0.001412   0.000043  -0.023103  -0.002398   0.002003   0.378126
    27  C    0.000691   0.000014  -0.021379  -0.001981  -0.002579   0.369126
    28  H    0.000007   0.000001  -0.002193  -0.000000   0.000434  -0.022804
    29  H    0.000007  -0.000000  -0.002170   0.000383  -0.000005  -0.022801
    30  C   -0.000004  -0.000000   0.000684   0.000005   0.000012  -0.021587
    31  H   -0.000000  -0.000000   0.000006   0.000002  -0.000001  -0.002199
    32  H   -0.000000  -0.000000   0.000006  -0.000001   0.000002  -0.002192
    33  C    0.000000   0.000000  -0.000005  -0.000000  -0.000000   0.000715
    34  H   -0.000000  -0.000000   0.000000   0.000000   0.000000  -0.000015
    35  H    0.000000  -0.000000  -0.000000   0.000000  -0.000000   0.000008
    36  H    0.000000  -0.000000  -0.000000  -0.000000   0.000000   0.000008
              25         26         27         28         29         30
     1  C   -0.000000  -0.000000   0.000000   0.000000  -0.000000   0.000000
     2  H   -0.000000  -0.000000   0.000000   0.000000  -0.000000   0.000000
     3  H   -0.000000  -0.000000   0.000000   0.000000  -0.000000   0.000000
     4  H    0.000000   0.000000   0.000000   0.000000   0.000000   0.000000
     5  C    0.000000   0.000000   0.000000  -0.000000   0.000000   0.000000
     6  H   -0.000000   0.000000   0.000000  -0.000000   0.000000  -0.000000
     7  H    0.000000   0.000000  -0.000000  -0.000000   0.000000  -0.000000
     8  C   -0.000000  -0.000000  -0.000000   0.000000  -0.000000  -0.000000
     9  H    0.000000  -0.000000  -0.000000  -0.000000  -0.000000   0.000000
    10  H   -0.000000  -0.000000   0.000000   0.000000  -0.000000  -0.000000
    11  C    0.000000   0.000000   0.000000   0.000000   0.000000  -0.000000
    12  H    0.000000   0.000000  -0.000000  -0.000000  -0.000000   0.000000
    13  H    0.000000   0.000000  -0.000000  -0.000000  -0.000000   0.000000
    14  C   -0.000000  -0.000012   0.000000   0.000000   0.000000  -0.000000
    15  H   -0.000001   0.000001   0.000000   0.000000  -0.000000  -0.000000
    16  H    0.000000  -0.000002  -0.000000  -0.000000  -0.000000   0.000000
    17  C    0.000012   0.000122   0.000000  -0.000000   0.000001  -0.000000
    18  H   -0.000000   0.000003  -0.000000   0.000000  -0.000000   0.000000
    19  C   -0.002281  -0.001412   0.000691   0.000007   0.000007  -0.000004
    20  H    0.000405   0.000043   0.000014   0.000001  -0.000000  -0.000000
    21  C   -0.022492  -0.023103  -0.021379  -0.002193  -0.002170   0.000684
    22  H    0.001886  -0.002398  -0.001981  -0.000000   0.000383   0.000005
    23  H   -0.002221   0.002003  -0.002579   0.000434  -0.000005   0.000012
    24  C    0.378494   0.378126   0.369126  -0.022804  -0.022801  -0.021587
    25  H    0.646054  -0.023727  -0.022657  -0.002342   0.001932  -0.002163
    26  H   -0.023727   0.646055  -0.022478   0.001921  -0.002273  -0.002170
    27  C   -0.022657  -0.022478   4.737769   0.378476   0.378361   0.368044
    28  H   -0.002342   0.001921   0.378476   0.648255  -0.023802  -0.022673
    29  H    0.001932  -0.002273   0.378361  -0.023802   0.648467  -0.022667
    30  C   -0.002163  -0.002170   0.368044  -0.022673  -0.022667   4.725520
    31  H    0.000002   0.000385  -0.023054   0.001943  -0.002345   0.379347
    32  H    0.000393   0.000003  -0.023061  -0.002345   0.001945   0.379315
    33  C    0.000007   0.000007  -0.022831  -0.002208  -0.002220   0.368797
    34  H   -0.000000  -0.000000   0.001239   0.000009   0.000010  -0.019415
    35  H    0.000002  -0.000001  -0.002133   0.000394  -0.000006  -0.021008
    36  H   -0.000001   0.000002  -0.002131  -0.000006   0.000393  -0.021012
              31         32         33         34         35         36
     1  C    0.000000   0.000000   0.000000   0.000000   0.000000   0.000000
     2  H    0.000000  -0.000000   0.000000   0.000000   0.000000   0.000000
     3  H    0.000000  -0.000000   0.000000   0.000000   0.000000   0.000000
     4  H    0.000000   0.000000   0.000000   0.000000   0.000000   0.000000
     5  C   -0.000000   0.000000   0.000000   0.000000   0.000000   0.000000
     6  H   -0.000000  -0.000000   0.000000   0.000000   0.000000   0.000000
     7  H   -0.000000   0.000000   0.000000   0.000000   0.000000   0.000000
     8  C    0.000000  -0.000000   0.000000   0.000000   0.000000   0.000000
     9  H    0.000000   0.000000  -0.000000   0.000000   0.000000  -0.000000
    10  H    0.000000  -0.000000   0.000000  -0.000000   0.000000   0.000000
    11  C   -0.000000  -0.000000   0.000000  -0.000000   0.000000   0.000000
    12  H   -0.000000   0.000000  -0.000000   0.000000  -0.000000  -0.000000
    13  H    0.000000   0.000000  -0.000000   0.000000  -0.000000  -0.000000
    14  C    0.000000  -0.000000   0.000000  -0.000000   0.000000   0.000000
    15  H    0.000000  -0.000000   0.000000  -0.000000   0.000000   0.000000
    16  H    0.000000   0.000000  -0.000000   0.000000  -0.000000  -0.000000
    17  C   -0.000000   0.000000   0.000000  -0.000000  -0.000000  -0.000000
    18  H   -0.000000  -0.000000  -0.000000   0.000000  -0.000000  -0.000000
    19  C   -0.000000  -0.000000   0.000000  -0.000000   0.000000   0.000000
    20  H   -0.000000  -0.000000   0.000000  -0.000000  -0.000000  -0.000000
    21  C    0.000006   0.000006  -0.000005   0.000000  -0.000000  -0.000000
    22  H    0.000002  -0.000001  -0.000000   0.000000   0.000000  -0.000000
    23  H   -0.000001   0.000002  -0.000000   0.000000  -0.000000   0.000000
    24  C   -0.002199  -0.002192   0.000715  -0.000015   0.000008   0.000008
    25  H    0.000002   0.000393   0.000007  -0.000000   0.000002  -0.000001
    26  H    0.000385   0.000003   0.000007  -0.000000  -0.000001   0.000002
    27  C   -0.023054  -0.023061  -0.022831   0.001239  -0.002133  -0.002131
    28  H    0.001943  -0.002345  -0.002208   0.000009   0.000394  -0.000006
    29  H   -0.002345   0.001945  -0.002220   0.000010  -0.000006   0.000393
    30  C    0.379347   0.379315   0.368797  -0.019415  -0.021008  -0.021012
    31  H    0.645826  -0.023856  -0.022155  -0.002126   0.001879  -0.002226
    32  H   -0.023856   0.646025  -0.022168  -0.002129  -0.002222   0.001879
    33  C   -0.022155  -0.022168   4.726012   0.381637   0.380235   0.380239
    34  H   -0.002126  -0.002129   0.381637   0.628701  -0.021525  -0.021524
    35  H    0.001879  -0.002222   0.380235  -0.021525   0.633426  -0.021852
    36  H   -0.002226   0.001879   0.380239  -0.021524  -0.021852   0.633405
 Mulliken charges:
               1
     1  C   -0.166130
     2  H    0.052161
     3  H    0.052247
     4  H    0.054355
     5  C   -0.089296
     6  H    0.047759
     7  H    0.047520
     8  C   -0.090874
     9  H    0.044476
    10  H    0.043803
    11  C   -0.089716
    12  H    0.044484
    13  H    0.046021
    14  C   -0.097667
    15  H    0.052998
    16  H    0.059377
    17  C   -0.060939
    18  H    0.046669
    19  C   -0.060241
    20  H    0.045637
    21  C   -0.098409
    22  H    0.052890
    23  H    0.045457
    24  C   -0.087132
    25  H    0.048700
    26  H    0.048903
    27  C   -0.089434
    28  H    0.046933
    29  H    0.046791
    30  C   -0.089026
    31  H    0.048573
    32  H    0.048406
    33  C   -0.166064
    34  H    0.055137
    35  H    0.052804
    36  H    0.052826
 Sum of Mulliken charges =   0.00000
 Mulliken charges with hydrogens summed into heavy atoms:
               1
     1  C   -0.007367
     5  C    0.005983
     8  C   -0.002595
    11  C    0.000788
    14  C    0.014708
    17  C   -0.014270
    19  C   -0.014603
    21  C   -0.000062
    24  C    0.010471
    27  C    0.004290
    30  C    0.007953
    33  C   -0.005296
 Electronic spatial extent (au):  <R**2>=           6567.6692
 Charge=             -0.0000 electrons
 Dipole moment (field-independent basis, Debye):
    X=             -0.1813    Y=             -0.1355    Z=             -0.0348  Tot=              0.2289
 Quadrupole moment (field-independent basis, Debye-Ang):
   XX=            -76.3487   YY=            -76.0921   ZZ=            -74.7275
   XY=              0.2339   XZ=             -0.6127   YZ=             -0.0672
 Traceless Quadrupole moment (field-independent basis, Debye-Ang):
   XX=             -0.6260   YY=             -0.3694   ZZ=              0.9953
   XY=              0.2339   XZ=             -0.6127   YZ=             -0.0672
 Octapole moment (field-independent basis, Debye-Ang**2):
  XXX=             -4.9191  YYY=             -0.5712  ZZZ=             -0.1167  XYY=             -0.9131
  XXY=              4.3610  XXZ=              0.8938  XZZ=              0.1912  YZZ=              0.1437
  YYZ=             -0.2786  XYZ=             -1.1908
 Hexadecapole moment (field-independent basis, Debye-Ang**3):
 XXXX=          -8118.6649 YYYY=           -482.7329 ZZZZ=           -171.0680 XXXY=             18.6751
 XXXZ=            -14.1802 YYYX=              5.4960 YYYZ=             -3.3843 ZZZX=             -0.1119
 ZZZY=              1.8159 XXYY=          -1416.7697 XXZZ=          -1351.5861 YYZZ=           -108.8215
 XXYZ=              0.1533 YYXZ=             -2.7988 ZZXY=             -2.0809
 N-N= 6.558803341004D+02 E-N=-2.387314269000D+03  KE= 4.589047054830D+02
 1\1\GINC-CN0572\SP\RHF\STO-3G\C12H24\GRAHA682\04-Dec-2017\0\\# hf/sto-
 3g geom=connectivity\\Title Card Required\\0,1\C,0,-6.854443,-0.134877
 ,-0.168414\H,0,-7.040212,-0.818328,0.677653\H,0,-6.884443,-0.743683,-1
 .088126\H,0,-7.697052,0.572652,-0.212848\C,0,-5.520363,0.56989,-0.0210
 4\H,0,-5.368713,1.273324,-0.861988\H,0,-5.523451,1.199843,0.889097\C,0
 ,-4.344023,-0.388597,0.042497\H,0,-4.335099,-1.020835,-0.868101\H,0,-4
 .48926,-1.094591,0.884904\C,0,-3.001393,0.302765,0.189464\H,0,-3.00708
 7,0.930311,1.102873\H,0,-2.850369,1.009328,-0.649702\C,0,-1.824677,-0.
 663624,0.246928\H,0,-1.800656,-1.277687,-0.673205\H,0,-1.994641,-1.373
 719,1.081199\C,0,-0.511885,0.023005,0.428088\H,0,-0.405457,0.634962,1.
 338635\C,0,0.511885,-0.023005,-0.428088\H,0,0.34663974,0.32563996,-1.4
 6058731\C,0,1.87632772,-0.543823,-0.12027986\H,0,1.93651258,-0.8235179
 9,0.94857166\H,0,2.62608594,0.25971657,-0.2662852\C,0,2.27083239,-1.73
 401824,-0.98611571\H,0,2.18693673,-1.45504471,-2.0553667\H,0,1.5366755
 4,-2.54975212,-0.83836242\C,0,3.6709519,-2.24710419,-0.70568001\H,0,4.
 40109943,-1.42624947,-0.85485442\H,0,3.75560134,-2.52005756,0.36545219
 \C,0,4.06776754,-3.437095,-1.56181626\H,0,3.33431865,-4.25207013,-1.41
 055853\H,0,3.97959658,-3.15998128,-2.62982072\C,0,5.46825332,-3.938875
 95,-1.27019912\H,0,5.74142294,-4.80105577,-1.89835986\H,0,6.21936708,-
 3.14995764,-1.44592451\H,0,5.56859053,-4.25163617,-0.2168576\\Version=
 ES64L-G09RevE.01\State=1-A\HF=-462.7766464\RMSD=2.414e-09\Dipole=0.050
 3069,-0.0730171,-0.0158289\Quadrupole=-0.5370537,-0.1838884,0.7209421,
 0.0969191,-0.4341907,-0.2028472\PG=C01 [X(C12H24)]\\@


 FAULTILY FAULTLESS, ICILY REGULAR, SPLENDIDLY NULL...
           MAUDE BY TENNYSON
 Job cpu time:       0 days  0 hours  1 minutes  1.1 seconds.
 File lengths (MBytes):  RWF=      5 Int=      0 D2E=      0 Chk=      2 Scr=      1
 Normal termination of Gaussian 09 at Mon Dec  4 11:08:01 2017.
60.39user 0.74system 0:03.15elapsed 1936%CPU (0avgtext+0avgdata 428380maxresident)k
189872inputs+15968outputs (181major+24130minor)pagefaults 0swaps
