 Entering Gaussian System, Link 0=g09
 Initial command:
 /soft/gaussian/g09.d01_itasca/g09/l1.exe "/scratch/jgoodpas/2034010.node1081.localdomain/Gau-25065.inp" -scrdir="/scratch/jgoodpas/2034010.node1081.localdomain/"
 Entering Link 1 = /soft/gaussian/g09.d01_itasca/g09/l1.exe PID=     25066.
  
 Copyright (c) 1988,1990,1992,1993,1995,1998,2003,2009,2013,
            Gaussian, Inc.  All Rights Reserved.
  
 This is part of the Gaussian(R) 09 program.  It is based on
 the Gaussian(R) 03 system (copyright 2003, Gaussian, Inc.),
 the Gaussian(R) 98 system (copyright 1998, Gaussian, Inc.),
 the Gaussian(R) 94 system (copyright 1995, Gaussian, Inc.),
 the Gaussian 92(TM) system (copyright 1992, Gaussian, Inc.),
 the Gaussian 90(TM) system (copyright 1990, Gaussian, Inc.),
 the Gaussian 88(TM) system (copyright 1988, Gaussian, Inc.),
 the Gaussian 86(TM) system (copyright 1986, Carnegie Mellon
 University), and the Gaussian 82(TM) system (copyright 1983,
 Carnegie Mellon University). Gaussian is a federally registered
 trademark of Gaussian, Inc.
  
 This software contains proprietary and confidential information,
 including trade secrets, belonging to Gaussian, Inc.
  
 This software is provided under written license and may be
 used, copied, transmitted, or stored only in accord with that
 written license.
  
 The following legend is applicable only to US Government
 contracts under FAR:
  
                    RESTRICTED RIGHTS LEGEND
  
 Use, reproduction and disclosure by the US Government is
 subject to restrictions as set forth in subparagraphs (a)
 and (c) of the Commercial Computer Software - Restricted
 Rights clause in FAR 52.227-19.
  
 Gaussian, Inc.
 340 Quinnipiac St., Bldg. 40, Wallingford CT 06492
  
  
 ---------------------------------------------------------------
 Warning -- This program may not be used in any manner that
 competes with the business of Gaussian, Inc. or will provide
 assistance to any competitor of Gaussian, Inc.  The licensee
 of this program is prohibited from giving any competitor of
 Gaussian, Inc. access to this program.  By using this program,
 the user acknowledges that Gaussian, Inc. is engaged in the
 business of creating and licensing software in the field of
 computational chemistry and represents and warrants to the
 licensee that it is not a competitor of Gaussian, Inc. and that
 it will not use this program in any manner prohibited above.
 ---------------------------------------------------------------
  

 Cite this work as:
 Gaussian 09, Revision D.01,
 M. J. Frisch, G. W. Trucks, H. B. Schlegel, G. E. Scuseria, 
 M. A. Robb, J. R. Cheeseman, G. Scalmani, V. Barone, B. Mennucci, 
 G. A. Petersson, H. Nakatsuji, M. Caricato, X. Li, H. P. Hratchian, 
 A. F. Izmaylov, J. Bloino, G. Zheng, J. L. Sonnenberg, M. Hada, 
 M. Ehara, K. Toyota, R. Fukuda, J. Hasegawa, M. Ishida, T. Nakajima, 
 Y. Honda, O. Kitao, H. Nakai, T. Vreven, J. A. Montgomery, Jr., 
 J. E. Peralta, F. Ogliaro, M. Bearpark, J. J. Heyd, E. Brothers, 
 K. N. Kudin, V. N. Staroverov, T. Keith, R. Kobayashi, J. Normand, 
 K. Raghavachari, A. Rendell, J. C. Burant, S. S. Iyengar, J. Tomasi, 
 M. Cossi, N. Rega, J. M. Millam, M. Klene, J. E. Knox, J. B. Cross, 
 V. Bakken, C. Adamo, J. Jaramillo, R. Gomperts, R. E. Stratmann, 
 O. Yazyev, A. J. Austin, R. Cammi, C. Pomelli, J. W. Ochterski, 
 R. L. Martin, K. Morokuma, V. G. Zakrzewski, G. A. Voth, 
 P. Salvador, J. J. Dannenberg, S. Dapprich, A. D. Daniels, 
 O. Farkas, J. B. Foresman, J. V. Ortiz, J. Cioslowski, 
 and D. J. Fox, Gaussian, Inc., Wallingford CT, 2013.
 
 ******************************************
 Gaussian 09:  ES64L-G09RevD.01 24-Apr-2013
                17-Oct-2017 
 ******************************************
 %LindaWorkers=ic-node0060
 %Mem=11800mb
 %NProcShared=8
 Will use up to    8 processors via shared memory.
 %chk=dimer.chk
 SetLPE:  input flags=" -workerwait 250000 -opt "Tsnet.Node.lindarsharg: ssh " "
 SetLPE:    new flags=" -workerwait 250000 -opt "Tsnet.Node.lindarsharg: ssh "  -nodelist 'ic-node0060'"
 Will use up to    1 processors via Linda.
 -------------------------------------------------------------
 # Opt=(Z-mat,maxcycle=200) m06/def2svp Integral=SuperFineGrid
 -------------------------------------------------------------
 1/6=200,10=7,14=-1,18=40,26=5,38=1/1,3;
 2/12=2,17=6,18=5,29=3,40=1/2;
 3/5=43,7=101,11=2,16=1,25=1,30=1,71=1,74=-54,75=-7/1,2,3;
 4//1;
 5/5=2,38=5/2;
 6/7=2,8=2,9=2,10=2,28=1/1;
 7/29=1/1,2,3,16;
 1/6=200,10=7,14=-1,18=40,26=5/3(2);
 2/29=3/2;
 99//99;
 2/29=3/2;
 3/5=43,7=101,11=2,16=1,25=1,30=1,71=1,74=-54,75=-7/1,2,3;
 4/5=5,16=3,69=1/1;
 5/5=2,38=5/2;
 7//1,2,3,16;
 1/6=200,14=-1,18=40,26=5/3(-5);
 2/29=3/2;
 6/7=2,8=2,9=2,10=2,19=2,28=1/1;
 99/9=1/99;
 ------
 C12H24
 ------
 Symbolic Z-matrix:
 Charge =  0 Multiplicity = 1
 C
 C                    1    B1
 H                    1    B2       2    A2
 H                    1    B3       2    A3       3    D3       0
 H                    1    B4       2    A4       3    D4       0
 C                    2    B5       1    A5       3    D5       0
 H                    2    B6       1    A6       3    D6       0
 H                    2    B7       1    A7       3    D7       0
 C                    6    B8       2    A8       1    D8       0
 H                    6    B9       2    A9       1    D9       0
 H                    6    B10      2    A10      1    D10      0
 C                    9    B11      6    A11      2    D11      0
 H                    9    B12      6    A12      2    D12      0
 H                    9    B13      6    A13      2    D13      0
 C                    12   B14      9    A14      6    D14      0
 H                    12   B15      9    A15      6    D15      0
 H                    12   B16      9    A16      6    D16      0
 C                    15   B17      12   A17      9    D17      0
 H                    15   B18      12   A18      9    D18      0
 H                    15   B19      12   A19      9    D19      0
 C                    18   B20      15   A20      12   D20      0
 H                    18   B21      15   A21      12   D21      0
 H                    18   B22      15   A22      12   D22      0
 C                    21   B23      18   A23      15   D23      0
 H                    21   B24      18   A24      15   D24      0
 H                    21   B25      18   A25      15   D25      0
 C                    24   B26      21   A26      18   D26      0
 H                    24   B27      21   A27      18   D27      0
 H                    24   B28      21   A28      18   D28      0
 C                    27   B29      24   A29      21   D29      0
 H                    27   B30      24   A30      21   D30      0
 H                    27   B31      24   A31      21   D31      0
 C                    30   B32      27   A32      24   D32      0
 H                    33   B33      30   A33      27   D33      0
 H                    33   B34      30   A34      27   D34      0
 H                    30   B35      27   A35      24   D35      0
       Variables:
  B1                    1.52037                  
  B2                    1.09449                  
  A2                  110.2615                   
  B3                    1.09469                  
  A3                  110.99941                  
  D3                  240.2622                   
  B4                    1.09468                  
  A4                  111.00291                  
  D4                  119.74267                  
  B5                    1.52846                  
  A5                  111.49348                  
  D5                  180.02355                  
  B6                    1.09622                  
  A6                  109.14402                  
  D6                   58.466                    
  B7                    1.09622                  
  A7                  109.14651                  
  D7                  301.57536                  
  B8                    1.52957                  
  A8                  111.33085                  
  D8                  180.06732                  
  B9                    1.09685                  
  A9                  109.56808                  
  D9                   58.69294                  
  B10                   1.09685                  
  A10                 109.56982                  
  D10                 301.43153                  
  B11                   1.52959                  
  A11                 111.32932                  
  D11                 180.0495                   
  B12                   1.09682                  
  A12                 109.56214                  
  D12                  58.69169                  
  B13                   1.09682                  
  A13                 109.57144                  
  D13                 301.40424                  
  B14                   1.52958                  
  A14                 111.33412                  
  D14                 180.11548                  
  B15                   1.09681                  
  A15                 109.56324                  
  D15                  58.75236                  
  B16                   1.09681                  
  A16                 109.56894                  
  D16                 301.4668                   
  B17                   1.52958                  
  A17                 111.32441                  
  D17                 180.06818                  
  B18                   1.09681                  
  A18                 109.56207                  
  D18                  58.71257                  
  B19                   1.09681                  
  A19                 109.57415                  
  D19                 301.42268                  
  B20                   1.5296                   
  A20                 111.33392                  
  D20                 180.12584                  
  B21                   1.09681                  
  A21                 109.56096                  
  D21                  58.76319                  
  B22                   1.09681                  
  A22                 109.57002                  
  D22                 301.47796                  
  B23                   1.53006                  
  A23                 111.33208                  
  D23                 180.06793                  
  B24                   1.09681                  
  A24                 109.55355                  
  D24                  58.71484                  
  B25                   1.09681                  
  A25                 109.57481                  
  D25                 301.41764                  
  B26                   1.52997                  
  A26                 111.27387                  
  D26                 180.07455                  
  B27                   1.09745                  
  A27                 109.45602                  
  D27                  58.51678                  
  B28                   1.09744                  
  A28                 109.4982                   
  D28                 301.54273                  
  B29                   1.50175                  
  A29                 111.29171                  
  D29                 180.59371                  
  B30                   1.0969                   
  A30                 109.65896                  
  D30                  57.82495                  
  B31                   1.09657                  
  A31                 109.82846                  
  D31                 300.6713                   
  B32                   1.33889                  
  A32                 124.10415                  
  D32                 241.95558                  
  B33                   1.08555                  
  A33                 121.75919                  
  B34                   1.08571                  
  A34                 120.7488                   
  B35                   1.08828                  
  A35                 116.90896                  
  D35                  62.58421                  
       Constants:
  D33                 165.                       
  D34                 345.                       
 

 GradGradGradGradGradGradGradGradGradGradGradGradGradGradGradGradGradGrad
 Berny optimization.
 Initialization pass.
                       ----------------------------
                       !    Initial Parameters    !
                       ! (Angstroms and Degrees)  !
 ----------------------                            ----------------------
 !      Name          Value   Derivative information (Atomic Units)     !
 ------------------------------------------------------------------------
 !       B1          1.5204   estimate D2E/DX2                          !
 !       B2          1.0945   estimate D2E/DX2                          !
 !       A2        110.2615   estimate D2E/DX2                          !
 !       B3          1.0947   estimate D2E/DX2                          !
 !       A3        110.9994   estimate D2E/DX2                          !
 !       D3        240.2622   estimate D2E/DX2                          !
 !       B4          1.0947   estimate D2E/DX2                          !
 !       A4        111.0029   estimate D2E/DX2                          !
 !       D4        119.7427   estimate D2E/DX2                          !
 !       B5          1.5285   estimate D2E/DX2                          !
 !       A5        111.4935   estimate D2E/DX2                          !
 !       D5        180.0236   estimate D2E/DX2                          !
 !       B6          1.0962   estimate D2E/DX2                          !
 !       A6        109.144    estimate D2E/DX2                          !
 !       D6         58.466    estimate D2E/DX2                          !
 !       B7          1.0962   estimate D2E/DX2                          !
 !       A7        109.1465   estimate D2E/DX2                          !
 !       D7        301.5754   estimate D2E/DX2                          !
 !       B8          1.5296   estimate D2E/DX2                          !
 !       A8        111.3308   estimate D2E/DX2                          !
 !       D8        180.0673   estimate D2E/DX2                          !
 !       B9          1.0969   estimate D2E/DX2                          !
 !       A9        109.5681   estimate D2E/DX2                          !
 !       D9         58.6929   estimate D2E/DX2                          !
 !       B10         1.0969   estimate D2E/DX2                          !
 !       A10       109.5698   estimate D2E/DX2                          !
 !       D10       301.4315   estimate D2E/DX2                          !
 !       B11         1.5296   estimate D2E/DX2                          !
 !       A11       111.3293   estimate D2E/DX2                          !
 !       D11       180.0495   estimate D2E/DX2                          !
 !       B12         1.0968   estimate D2E/DX2                          !
 !       A12       109.5621   estimate D2E/DX2                          !
 !       D12        58.6917   estimate D2E/DX2                          !
 !       B13         1.0968   estimate D2E/DX2                          !
 !       A13       109.5714   estimate D2E/DX2                          !
 !       D13       301.4042   estimate D2E/DX2                          !
 !       B14         1.5296   estimate D2E/DX2                          !
 !       A14       111.3341   estimate D2E/DX2                          !
 !       D14       180.1155   estimate D2E/DX2                          !
 !       B15         1.0968   estimate D2E/DX2                          !
 !       A15       109.5632   estimate D2E/DX2                          !
 !       D15        58.7524   estimate D2E/DX2                          !
 !       B16         1.0968   estimate D2E/DX2                          !
 !       A16       109.5689   estimate D2E/DX2                          !
 !       D16       301.4668   estimate D2E/DX2                          !
 !       B17         1.5296   estimate D2E/DX2                          !
 !       A17       111.3244   estimate D2E/DX2                          !
 !       D17       180.0682   estimate D2E/DX2                          !
 !       B18         1.0968   estimate D2E/DX2                          !
 !       A18       109.5621   estimate D2E/DX2                          !
 !       D18        58.7126   estimate D2E/DX2                          !
 !       B19         1.0968   estimate D2E/DX2                          !
 !       A19       109.5742   estimate D2E/DX2                          !
 !       D19       301.4227   estimate D2E/DX2                          !
 !       B20         1.5296   estimate D2E/DX2                          !
 !       A20       111.3339   estimate D2E/DX2                          !
 !       D20       180.1258   estimate D2E/DX2                          !
 !       B21         1.0968   estimate D2E/DX2                          !
 !       A21       109.561    estimate D2E/DX2                          !
 !       D21        58.7632   estimate D2E/DX2                          !
 !       B22         1.0968   estimate D2E/DX2                          !
 !       A22       109.57     estimate D2E/DX2                          !
 !       D22       301.478    estimate D2E/DX2                          !
 !       B23         1.5301   estimate D2E/DX2                          !
 !       A23       111.3321   estimate D2E/DX2                          !
 !       D23       180.0679   estimate D2E/DX2                          !
 !       B24         1.0968   estimate D2E/DX2                          !
 !       A24       109.5536   estimate D2E/DX2                          !
 !       D24        58.7148   estimate D2E/DX2                          !
 !       B25         1.0968   estimate D2E/DX2                          !
 !       A25       109.5748   estimate D2E/DX2                          !
 !       D25       301.4176   estimate D2E/DX2                          !
 !       B26         1.53     estimate D2E/DX2                          !
 !       A26       111.2739   estimate D2E/DX2                          !
 !       D26       180.0745   estimate D2E/DX2                          !
 !       B27         1.0975   estimate D2E/DX2                          !
 !       A27       109.456    estimate D2E/DX2                          !
 !       D27        58.5168   estimate D2E/DX2                          !
 !       B28         1.0974   estimate D2E/DX2                          !
 !       A28       109.4982   estimate D2E/DX2                          !
 !       D28       301.5427   estimate D2E/DX2                          !
 !       B29         1.5018   estimate D2E/DX2                          !
 !       A29       111.2917   estimate D2E/DX2                          !
 !       D29       180.5937   estimate D2E/DX2                          !
 !       B30         1.0969   estimate D2E/DX2                          !
 !       A30       109.659    estimate D2E/DX2                          !
 !       D30        57.8249   estimate D2E/DX2                          !
 !       B31         1.0966   estimate D2E/DX2                          !
 !       A31       109.8285   estimate D2E/DX2                          !
 !       D31       300.6713   estimate D2E/DX2                          !
 !       B32         1.3389   estimate D2E/DX2                          !
 !       A32       124.1042   estimate D2E/DX2                          !
 !       D32       241.9556   estimate D2E/DX2                          !
 !       B33         1.0856   estimate D2E/DX2                          !
 !       A33       121.7592   estimate D2E/DX2                          !
 !       B34         1.0857   estimate D2E/DX2                          !
 !       A34       120.7488   estimate D2E/DX2                          !
 !       B35         1.0883   estimate D2E/DX2                          !
 !       A35       116.909    estimate D2E/DX2                          !
 !       D35        62.5842   estimate D2E/DX2                          !
 !       D33       165.0      Frozen                                    !
 !       D34       345.0      Frozen                                    !
 ------------------------------------------------------------------------
 Trust Radius=3.00D-01 FncErr=1.00D-07 GrdErr=1.00D-07
 Number of steps in this run=    200 maximum allowed number of steps=    204.
 GradGradGradGradGradGradGradGradGradGradGradGradGradGradGradGradGradGrad

 ---------------------------------------------------------------------------------------------------
                            Z-MATRIX (ANGSTROMS AND DEGREES)
   CD    Cent   Atom    N1       Length/X        N2       Alpha/Y        N3        Beta/Z          J
 ---------------------------------------------------------------------------------------------------
      1      1  C 
      2      2  C        1   1.520370(     1)
      3      3  H        1   1.094490(     2)      2  110.262(    36)
      4      4  H        1   1.094690(     3)      2  110.999(    37)      3  240.262(    70)      0
      5      5  H        1   1.094680(     4)      2  111.003(    38)      3  119.743(    71)      0
      6      6  C        2   1.528460(     5)      1  111.493(    39)      3  180.024(    72)      0
      7      7  H        2   1.096220(     6)      1  109.144(    40)      3   58.466(    73)      0
      8      8  H        2   1.096220(     7)      1  109.147(    41)      3  301.575(    74)      0
      9      9  C        6   1.529570(     8)      2  111.331(    42)      1  180.067(    75)      0
     10     10  H        6   1.096850(     9)      2  109.568(    43)      1   58.693(    76)      0
     11     11  H        6   1.096850(    10)      2  109.570(    44)      1  301.432(    77)      0
     12     12  C        9   1.529590(    11)      6  111.329(    45)      2  180.050(    78)      0
     13     13  H        9   1.096820(    12)      6  109.562(    46)      2   58.692(    79)      0
     14     14  H        9   1.096820(    13)      6  109.571(    47)      2  301.404(    80)      0
     15     15  C       12   1.529580(    14)      9  111.334(    48)      6  180.115(    81)      0
     16     16  H       12   1.096810(    15)      9  109.563(    49)      6   58.752(    82)      0
     17     17  H       12   1.096810(    16)      9  109.569(    50)      6  301.467(    83)      0
     18     18  C       15   1.529580(    17)     12  111.324(    51)      9  180.068(    84)      0
     19     19  H       15   1.096810(    18)     12  109.562(    52)      9   58.713(    85)      0
     20     20  H       15   1.096810(    19)     12  109.574(    53)      9  301.423(    86)      0
     21     21  C       18   1.529600(    20)     15  111.334(    54)     12  180.126(    87)      0
     22     22  H       18   1.096810(    21)     15  109.561(    55)     12   58.763(    88)      0
     23     23  H       18   1.096810(    22)     15  109.570(    56)     12  301.478(    89)      0
     24     24  C       21   1.530060(    23)     18  111.332(    57)     15  180.068(    90)      0
     25     25  H       21   1.096810(    24)     18  109.554(    58)     15   58.715(    91)      0
     26     26  H       21   1.096810(    25)     18  109.575(    59)     15  301.418(    92)      0
     27     27  C       24   1.529970(    26)     21  111.274(    60)     18  180.075(    93)      0
     28     28  H       24   1.097450(    27)     21  109.456(    61)     18   58.517(    94)      0
     29     29  H       24   1.097440(    28)     21  109.498(    62)     18  301.543(    95)      0
     30     30  C       27   1.501750(    29)     24  111.292(    63)     21  180.594(    96)      0
     31     31  H       27   1.096900(    30)     24  109.659(    64)     21   57.825(    97)      0
     32     32  H       27   1.096570(    31)     24  109.828(    65)     21  300.671(    98)      0
     33     33  C       30   1.338890(    32)     27  124.104(    66)     24  241.956(    99)      0
     34     34  H       33   1.085550(    33)     30  121.759(    67)     27  165.000(   100)      0
     35     35  H       33   1.085710(    34)     30  120.749(    68)     27  345.000(   101)      0
     36     36  H       30   1.088280(    35)     27  116.909(    69)     24   62.584(   102)      0
 ---------------------------------------------------------------------------------------------------
                         Z-Matrix orientation:                         
 ---------------------------------------------------------------------
 Center     Atomic      Atomic             Coordinates (Angstroms)
 Number     Number       Type             X           Y           Z
 ---------------------------------------------------------------------
      1          6           0        0.000000    0.000000    0.000000
      2          6           0        0.000000    0.000000    1.520370
      3          1           0        1.026765    0.000000   -0.379028
      4          1           0       -0.506937    0.887394   -0.392291
      5          1           0       -0.506996   -0.887322   -0.392350
      6          6           0       -1.422170   -0.000585    2.080391
      7          1           0        0.541621    0.882669    1.879869
      8          1           0        0.542250   -0.882265    1.879914
      9          6           0       -1.417829    0.001091    3.609954
     10          1           0       -1.960390   -0.883823    1.715305
     11          1           0       -1.961845    0.881033    1.713538
     12          6           0       -2.841064   -0.000725    4.170352
     13          1           0       -0.880476    0.884957    3.974709
     14          1           0       -0.877544   -0.880117    3.976802
     15          6           0       -2.836857    0.003823    5.699919
     16          1           0       -3.377699   -0.885606    3.807035
     17          1           0       -3.382035    0.879433    3.802024
     18          6           0       -4.260172    0.000310    6.260077
     19          1           0       -2.301279    0.889417    6.063059
     20          1           0       -2.294922   -0.875633    6.068507
     21          6           0       -4.256232    0.007986    7.789653
     22          1           0       -4.794941   -0.886396    5.898461
     23          1           0       -4.802856    0.878620    5.889863
     24          6           0       -5.680003    0.002782    8.349950
     25          1           0       -3.722490    0.895453    8.150919
     26          1           0       -3.712685   -0.869677    8.160135
     27          6           0       -5.674519    0.012323    9.879880
     28          1           0       -6.213070   -0.884521    7.985355
     29          1           0       -6.223979    0.879534    7.976089
     30          6           0       -7.071612   -0.007278   10.430335
     31          1           0       -5.128482    0.892261   10.241464
     32          1           0       -5.141577   -0.869376   10.255440
     33          6           0       -7.595135    0.967368   11.184400
     34          1           0       -8.663287    1.039584   11.363995
     35          1           0       -6.958234    1.718921   11.640790
     36          1           0       -7.679357   -0.880293   10.200458
 ---------------------------------------------------------------------
                    Distance matrix (angstroms):
                    1          2          3          4          5
     1  C    0.000000
     2  C    1.520370   0.000000
     3  H    1.094490   2.159157   0.000000
     4  H    1.094690   2.168577   1.771972   0.000000
     5  H    1.094680   2.168613   1.771988   1.774717   0.000000
     6  C    2.520038   1.528460   3.470738   2.782142   2.781779
     7  H    2.146244   1.096220   2.473274   2.502440   3.065199
     8  H    2.146276   1.096220   2.473047   3.065192   2.502823
     9  C    3.878402   2.525193   4.678463   4.199193   4.199682
    10  H    2.750735   2.159230   3.753727   3.113149   2.560191
    11  H    2.749776   2.159252   3.753244   2.559554   3.111018
    12  C    5.046135   3.885106   5.971344   5.201405   5.201170
    13  H    4.166137   2.753574   4.834847   4.382948   4.727755
    14  H    4.166491   2.752953   4.834693   4.727624   4.384843
    15  C    6.366856   5.051376   7.202859   6.582116   6.583171
    16  H    5.165913   4.173965   6.140580   5.386942   5.086823
    17  H    5.164005   4.173428   6.139390   5.085128   5.383311
    18  C    7.572162   6.372903   8.487015   7.689454   7.689539
    19  H    6.545810   5.169427   7.305301   6.700091   6.931707
    20  H    6.546768   5.169037   7.305548   6.931599   6.703692
    21  C    8.876613   7.577564   9.728179   9.042941   9.044530
    22  H    7.653038   6.553231   8.607254   7.817088   7.613197
    23  H    7.650482   6.552241   8.605547   7.610549   7.812756
    24  C   10.098718   8.882882  11.007988  10.196564  10.197063
    25  H    9.005346   7.656563   9.803941   9.128324   9.300814
    26  H    9.007118   7.656817   9.804898   9.300974   9.133551
    27  C   11.393522  10.103550  12.253675  11.532006  11.533922
    28  H   10.156304   9.010030  11.097769  10.290024  10.136332
    29  H   10.155269   9.010427  11.097515  10.134812  10.287684
    30  C   12.601572  11.375202  13.506520  12.689548  12.688545
    31  H   11.488475  10.156522  12.307642  11.594631  11.730433
    32  H   11.505028  10.173154  12.324616  11.744799  11.612713
    33  C   13.554065  12.329451  14.456342  13.574562  13.700465
    34  H   14.327375  13.154096  15.260289  14.309419  14.437788
    35  H   13.670395  12.401395  14.532409  13.678659  13.899908
    36  H   12.798312  11.622882  13.729421  12.914127  12.792592
                    6          7          8          9         10
     6  C    0.000000
     7  H    2.162596   0.000000
     8  H    2.162521   1.764935   0.000000
     9  C    1.529570   2.758590   2.759577   0.000000
    10  H    1.096850   3.067188   2.508049   2.160357   0.000000
    11  H    1.096850   2.508986   3.067147   2.160241   1.764858
    12  C    2.526103   4.179624   4.179717   1.529590   2.753671
    13  H    2.160106   2.531941   3.087943   1.096820   3.065894
    14  H    2.160225   3.085219   2.532343   1.096820   2.507378
    15  C    3.886174   5.174869   5.176481   2.526184   4.175316
    16  H    2.754752   4.711883   4.368044   2.160130   2.526678
    17  H    2.753093   4.369184   4.711486   2.160203   3.079698
    18  C    5.052132   6.559116   6.559576   3.886138   5.169685
    19  H    4.174516   5.057787   5.359405   2.754511   4.707818
    20  H    4.175222   5.355585   5.059042   2.753620   4.366045
    21  C    6.373983   7.662246   7.664398   5.052372   6.554687
    22  H    5.170871   6.910685   6.680894   4.174899   5.053066
    23  H    5.168570   6.681580   6.910178   4.174500   5.349089
    24  C    7.578689   9.019133   9.020039   6.374456   7.657682
    25  H    6.553295   7.583462   7.789339   5.170272   6.905647
    26  H    6.554775   7.785345   7.585896   5.169986   6.678816
    27  C    8.883393  10.168485  10.170937   7.578358   9.014328
    28  H    7.655238   9.275008   9.105535   6.551548   7.576200
    29  H    7.654491   9.106989   9.276268   6.552394   7.777212
    30  C   10.081558  11.483196  11.482430   8.859059  10.141236
    31  H    9.007611  10.102794  10.257762   7.651148   9.267507
    32  H    9.023315  10.272224  10.122030   7.667235   9.113400
    33  C   11.041984  12.360756  12.498466   9.821662  11.173228
    34  H   11.819520  13.217550  13.356018  10.663034  11.904854
    35  H   11.180606  12.337858  12.581659   9.906632  11.413500
    36  H   10.288916  11.828979  11.697277   9.133363  10.232518
                   11         12         13         14         15
    11  H    0.000000
    12  C    2.754352   0.000000
    13  H    2.506446   2.160234   0.000000
    14  H    3.065897   2.160139   1.765078   0.000000
    15  C    4.174491   1.529580   2.753212   2.754885   0.000000
    16  H    3.083567   1.096810   3.065801   2.505919   2.160233
    17  H    2.525611   1.096810   2.507518   3.065785   2.160074
    18  C    5.170010   2.526029   4.174668   4.175006   1.529580
    19  H    4.362754   2.160107   2.525848   3.083949   1.096810
    20  H    4.707714   2.160261   3.079663   2.526699   1.096810
    21  C    6.553289   3.886145   5.169004   5.171276   2.526189
    22  H    5.353860   2.754707   4.707605   4.363349   2.160092
    23  H    5.051043   2.752925   4.364965   4.707550   2.160208
    24  C    7.657544   5.052586   6.554115   6.554963   3.886662
    25  H    6.673826   4.174322   5.051523   5.354402   2.754406
    26  H    6.905725   4.175306   5.349574   5.053554   2.753678
    27  C    9.012644   6.373959   7.656068   7.658573   5.052175
    28  H    7.779832   5.167763   6.903107   6.673556   4.172671
    29  H    7.575310   5.167456   6.675634   6.904711   4.173777
    30  C   10.143045   7.555459   8.988957   8.987569   6.349024
    31  H    9.096881   6.548902   7.570854   7.775461   5.163962
    32  H    9.281094   6.563171   7.789881   7.589689   5.179477
    33  C   11.019920   8.528498   9.852567  10.024405   7.324559
    34  H   11.750140   9.312843  10.733015  10.902920   8.191572
    35  H   11.145236   8.701478   9.818525  10.122574   7.431101
    36  H   10.383642   7.781061   9.386205   9.219466   6.669807
                   16         17         18         19         20
    16  H    0.000000
    17  H    1.765051   0.000000
    18  C    2.753366   2.754271   0.000000
    19  H    3.065784   2.506075   2.160229   0.000000
    20  H    2.507341   3.065781   2.160135   1.765070   0.000000
    21  C    4.175114   4.174306   1.529600   2.753160   2.754971
    22  H    2.526388   3.083748   1.096810   3.065771   2.505818
    23  H    3.079243   2.525432   1.096810   2.507588   3.065787
    24  C    5.169905   5.170378   2.526558   4.175137   4.175568
    25  H    4.707482   4.362231   2.160015   2.525676   3.084013
    26  H    4.366000   4.707638   2.160287   3.079644   2.526855
    27  C    6.554472   6.553449   3.886321   5.168768   5.170755
    28  H    5.049524   5.350379   2.751966   4.705761   4.361911
    29  H    5.347714   5.049700   2.752139   4.364327   4.707119
    30  C    7.634432   7.637653   5.029443   6.529413   6.526588
    31  H    6.901300   6.672079   4.171449   5.045013   5.344912
    32  H    6.685317   6.913819   4.182840   5.360662   5.062992
    33  C    8.697460   8.500437   6.025457   7.366079   7.593502
    34  H    9.420799   9.225003   6.820373   8.282368   8.500960
    35  H    8.998417   8.656801   6.259811   7.313439   7.715473
    36  H    7.705852   7.905921   5.290831   7.012394   6.787134
                   21         22         23         24         25
    21  C    0.000000
    22  H    2.160262   0.000000
    23  H    2.160093   1.765055   0.000000
    24  C    1.530060   2.753865   2.754724   0.000000
    25  H    1.096810   3.065731   2.505963   2.160632   0.000000
    26  H    1.096810   2.507335   3.065803   2.160452   1.765182
    27  C    2.525986   4.175291   4.174985   1.529970   2.753114
    28  H    2.159649   2.523137   3.080334   1.097450   3.065731
    29  H    2.160181   3.078506   2.524268   1.097440   2.507641
    30  C    3.860025   5.147228   5.152471   2.502934   4.150575
    31  H    2.748480   4.704950   4.363789   2.161753   2.519365
    32  H    2.762916   4.370779   4.714709   2.163667   3.091510
    33  C    4.857262   6.262482   5.986387   3.554190   4.919812
    34  H    5.767344   6.967465   6.700370   4.365709   5.895431
    35  H    5.005933   6.666473   6.198784   3.925384   4.829838
    36  H    4.280048   5.179486   5.472593   2.863847   4.796945
                   26         27         28         29         30
    26  H    0.000000
    27  C    2.753949   0.000000
    28  H    2.506530   2.164161   0.000000
    29  H    3.065976   2.162957   1.764112   0.000000
    30  C    4.144867   1.501750   2.735795   2.743764   0.000000
    31  H    3.072595   1.096900   3.069742   2.516387   2.149557
    32  H    2.536145   1.096570   2.510302   3.070134   2.121046
    33  C    5.253030   2.510508   3.946326   3.490136   1.338890
    34  H    6.198262   3.491504   4.595754   4.177769   2.121573
    35  H    5.417507   2.767888   4.549218   3.830631   2.111355
    36  H    4.460663   2.217862   2.656445   3.187936   1.088280
                   31         32         33         34         35
    31  H    0.000000
    32  H    1.761741   0.000000
    33  C    2.641807   3.202584   0.000000
    34  H    3.711688   4.156377   1.085550   0.000000
    35  H    2.447339   3.452349   1.085710   1.856157   0.000000
    36  H    3.106541   2.538400   2.095015   2.451095   3.057857
                   36
    36  H    0.000000
 Stoichiometry    C12H24
 Framework group  C1[X(C12H24)]
 Deg. of freedom   102
 Full point group                 C1      NOp   1
 Largest Abelian subgroup         C1      NOp   1
 Largest concise Abelian subgroup C1      NOp   1
                         Standard orientation:                         
 ---------------------------------------------------------------------
 Center     Atomic      Atomic             Coordinates (Angstroms)
 Number     Number       Type             X           Y           Z
 ---------------------------------------------------------------------
      1          6           0       -6.772605   -0.424670    0.091845
      2          6           0       -5.523367    0.441638    0.112807
      3          1           0       -7.668462    0.200320    0.160669
      4          1           0       -6.779950   -1.122948    0.934875
      5          1           0       -6.832854   -1.003935   -0.835056
      6          6           0       -4.253752   -0.404034    0.017379
      7          1           0       -5.509958    1.030857    1.037112
      8          1           0       -5.562877    1.149835   -0.723012
      9          6           0       -2.999381    0.470954    0.040452
     10          1           0       -4.273704   -0.993613   -0.907326
     11          1           0       -4.221733   -1.114244    0.852637
     12          6           0       -1.728887   -0.375292   -0.056276
     13          1           0       -2.979188    1.059592    0.965715
     14          1           0       -3.031738    1.181634   -0.794354
     15          6           0       -0.474350    0.499396   -0.030348
     16          1           0       -1.748337   -0.962454   -0.982480
     17          1           0       -1.697386   -1.087306    0.777413
     18          6           0        0.795943   -0.346939   -0.128777
     19          1           0       -0.454422    1.085544    0.896489
     20          1           0       -0.506165    1.212300   -0.863263
     21          6           0        2.050731    0.527326   -0.099749
     22          1           0        0.776773   -0.931481   -1.056643
     23          1           0        0.826813   -1.061306    0.702919
     24          6           0        3.321346   -0.319191   -0.199895
     25          1           0        2.070220    1.110776    0.828797
     26          1           0        2.019608    1.242509   -0.930734
     27          6           0        4.575603    0.556417   -0.168890
     28          1           0        3.298743   -0.903996   -1.128275
     29          1           0        3.349910   -1.036589    0.630103
     30          6           0        5.822518   -0.272891   -0.281608
     31          1           0        4.588131    1.150623    0.753038
     32          1           0        4.554568    1.266079   -1.004595
     33          6           0        6.769137   -0.337415    0.663048
     34          1           0        7.526836   -1.114786    0.660511
     35          1           0        6.804019    0.393849    1.464798
     36          1           0        5.953540   -0.843057   -1.199266
 ---------------------------------------------------------------------
 Rotational constants (GHZ):      6.3497132      0.1581917      0.1569999
 Standard basis: def2SVP (5D, 7F)
 There are   300 symmetry adapted cartesian basis functions of A   symmetry.
 There are   288 symmetry adapted basis functions of A   symmetry.
   288 basis functions,   468 primitive gaussians,   300 cartesian basis functions
    48 alpha electrons       48 beta electrons
       nuclear repulsion energy       654.7367536401 Hartrees.
 NAtoms=   36 NActive=   36 NUniq=   36 SFac= 1.00D+00 NAtFMM=   60 NAOKFM=F Big=F
 Integral buffers will be    131072 words long.
 Raffenetti 2 integral format.
 Two-electron integral symmetry is turned on.
 One-electron integrals computed using PRISM.
   1 Symmetry operations used in ECPInt.
 ECPInt:  NShTT=   10440 NPrTT=   35208 LenC2=    8759 LenP2D=   21880.
 LDataN:  DoStor=T MaxTD1= 4 Len=   56
 NBasis=   288 RedAO= T EigKep=  7.65D-04  NBF=   288
 NBsUse=   288 1.00D-06 EigRej= -1.00D+00 NBFU=   288
 ExpMin= 1.22D-01 ExpMax= 1.24D+03 ExpMxC= 1.86D+02 IAcc=3 IRadAn=         7 AccDes= 0.00D+00
 Harris functional with IExCor= 1009 and IRadAn=       7 diagonalized for initial guess.
 HarFok:  IExCor= 1009 AccDes= 0.00D+00 IRadAn=         7 IDoV= 1 UseB2=F ITyADJ=14
 ICtDFT=  3500011 ScaDFX=  1.000000  1.000000  1.000000  1.000000
 FoFCou: FMM=F IPFlag=           0 FMFlag=      100000 FMFlg1=           0
         NFxFlg=           0 DoJE=T BraDBF=F KetDBF=T FulRan=T
         wScrn=  0.000000 ICntrl=     500 IOpCl=  0 I1Cent=   200000004 NGrid=           0
         NMat0=    1 NMatS0=      1 NMatT0=    0 NMatD0=    1 NMtDS0=    0 NMtDT0=    0
 Petite list used in FoFCou.
 Keep R1 ints in memory in canonical form, NReq=879895090.
 Requested convergence on RMS density matrix=1.00D-08 within 128 cycles.
 Requested convergence on MAX density matrix=1.00D-06.
 Requested convergence on             energy=1.00D-06.
 No special actions if energy rises.
 Integral accuracy reduced to 1.0D-05 until final iterations.
 Initial convergence to 1.0D-05 achieved.  Increase integral accuracy.
 SCF Done:  E(RM06) =  -470.970630635     A.U. after   12 cycles
            NFock= 12  Conv=0.74D-08     -V/T= 2.0127

 **********************************************************************

            Population analysis using the SCF density.

 **********************************************************************

 Orbital symmetries:
       Occupied  (A) (A) (A) (A) (A) (A) (A) (A) (A) (A) (A) (A)
                 (A) (A) (A) (A) (A) (A) (A) (A) (A) (A) (A) (A)
                 (A) (A) (A) (A) (A) (A) (A) (A) (A) (A) (A) (A)
                 (A) (A) (A) (A) (A) (A) (A) (A) (A) (A) (A) (A)
       Virtual   (A) (A) (A) (A) (A) (A) (A) (A) (A) (A) (A) (A)
                 (A) (A) (A) (A) (A) (A) (A) (A) (A) (A) (A) (A)
                 (A) (A) (A) (A) (A) (A) (A) (A) (A) (A) (A) (A)
                 (A) (A) (A) (A) (A) (A) (A) (A) (A) (A) (A) (A)
                 (A) (A) (A) (A) (A) (A) (A) (A) (A) (A) (A) (A)
                 (A) (A) (A) (A) (A) (A) (A) (A) (A) (A) (A) (A)
                 (A) (A) (A) (A) (A) (A) (A) (A) (A) (A) (A) (A)
                 (A) (A) (A) (A) (A) (A) (A) (A) (A) (A) (A) (A)
                 (A) (A) (A) (A) (A) (A) (A) (A) (A) (A) (A) (A)
                 (A) (A) (A) (A) (A) (A) (A) (A) (A) (A) (A) (A)
                 (A) (A) (A) (A) (A) (A) (A) (A) (A) (A) (A) (A)
                 (A) (A) (A) (A) (A) (A) (A) (A) (A) (A) (A) (A)
                 (A) (A) (A) (A) (A) (A) (A) (A) (A) (A) (A) (A)
                 (A) (A) (A) (A) (A) (A) (A) (A) (A) (A) (A) (A)
                 (A) (A) (A) (A) (A) (A) (A) (A) (A) (A) (A) (A)
                 (A) (A) (A) (A) (A) (A) (A) (A) (A) (A) (A) (A)
                 (A) (A) (A) (A) (A) (A) (A) (A) (A) (A) (A) (A)
                 (A) (A) (A) (A) (A) (A) (A) (A) (A) (A) (A) (A)
                 (A) (A) (A) (A) (A) (A) (A) (A) (A) (A) (A) (A)
                 (A) (A) (A) (A) (A) (A) (A) (A) (A) (A) (A) (A)
 The electronic state is 1-A.
 Alpha  occ. eigenvalues --  -10.24858 -10.24451 -10.24240 -10.23955 -10.23812
 Alpha  occ. eigenvalues --  -10.23744 -10.23733 -10.23681 -10.23649 -10.23646
 Alpha  occ. eigenvalues --  -10.23639 -10.23203  -0.82216  -0.81036  -0.79027
 Alpha  occ. eigenvalues --   -0.76318  -0.73034  -0.69206  -0.64899  -0.60618
 Alpha  occ. eigenvalues --   -0.58427  -0.57692  -0.57506  -0.55318  -0.49735
 Alpha  occ. eigenvalues --   -0.48535  -0.47014  -0.45511  -0.44608  -0.43765
 Alpha  occ. eigenvalues --   -0.43126  -0.42373  -0.40697  -0.40389  -0.39005
 Alpha  occ. eigenvalues --   -0.37605  -0.37267  -0.36123  -0.35266  -0.34435
 Alpha  occ. eigenvalues --   -0.34297  -0.33876  -0.33595  -0.33372  -0.33065
 Alpha  occ. eigenvalues --   -0.32926  -0.30322  -0.26135
 Alpha virt. eigenvalues --    0.01799   0.06306   0.07024   0.07897   0.08190
 Alpha virt. eigenvalues --    0.08713   0.09167   0.09625   0.10244   0.10989
 Alpha virt. eigenvalues --    0.11195   0.12714   0.13538   0.13781   0.14947
 Alpha virt. eigenvalues --    0.15500   0.15929   0.16211   0.16248   0.16941
 Alpha virt. eigenvalues --    0.17162   0.18277   0.18653   0.19619   0.19787
 Alpha virt. eigenvalues --    0.20494   0.20814   0.22684   0.23211   0.23644
 Alpha virt. eigenvalues --    0.25965   0.26609   0.28242   0.32447   0.32811
 Alpha virt. eigenvalues --    0.35358   0.38491   0.40511   0.41481   0.42105
 Alpha virt. eigenvalues --    0.42639   0.42891   0.43382   0.43802   0.44329
 Alpha virt. eigenvalues --    0.44825   0.47339   0.48160   0.49062   0.50349
 Alpha virt. eigenvalues --    0.51818   0.52693   0.54259   0.55232   0.58801
 Alpha virt. eigenvalues --    0.59133   0.61322   0.61633   0.61890   0.62059
 Alpha virt. eigenvalues --    0.62194   0.62636   0.62979   0.63103   0.63237
 Alpha virt. eigenvalues --    0.64288   0.64373   0.65048   0.65312   0.65832
 Alpha virt. eigenvalues --    0.66098   0.66332   0.66440   0.66585   0.67112
 Alpha virt. eigenvalues --    0.67309   0.67517   0.68268   0.68704   0.69061
 Alpha virt. eigenvalues --    0.69454   0.69901   0.70223   0.70969   0.71126
 Alpha virt. eigenvalues --    0.71649   0.71863   0.72058   0.72948   0.73299
 Alpha virt. eigenvalues --    0.77171   0.82097   0.85540   0.87139   0.87840
 Alpha virt. eigenvalues --    0.94304   0.98259   0.98586   0.99383   1.00465
 Alpha virt. eigenvalues --    1.01704   1.02131   1.02532   1.03045   1.04142
 Alpha virt. eigenvalues --    1.05388   1.07114   1.09399   1.17343   1.18502
 Alpha virt. eigenvalues --    1.22687   1.23380   1.26857   1.29613   1.31639
 Alpha virt. eigenvalues --    1.31872   1.33055   1.33755   1.34999   1.35901
 Alpha virt. eigenvalues --    1.36342   1.37579   1.37907   1.38297   1.42627
 Alpha virt. eigenvalues --    1.50550   1.52650   1.58242   1.58826   1.63248
 Alpha virt. eigenvalues --    1.64378   1.65469   1.66352   1.66702   1.69300
 Alpha virt. eigenvalues --    1.71538   1.72860   1.73503   1.74039   1.74285
 Alpha virt. eigenvalues --    1.74725   1.75612   1.76569   1.76781   1.77918
 Alpha virt. eigenvalues --    1.78186   1.79128   1.79710   1.79955   1.80187
 Alpha virt. eigenvalues --    1.80376   1.80582   1.81525   1.81749   1.82390
 Alpha virt. eigenvalues --    1.82651   1.83946   1.84369   1.84876   1.85717
 Alpha virt. eigenvalues --    1.87051   1.88018   1.89537   1.90809   1.91213
 Alpha virt. eigenvalues --    1.91506   1.92261   1.93321   1.93612   1.94693
 Alpha virt. eigenvalues --    1.96468   1.99302   1.99601   2.01319   2.04455
 Alpha virt. eigenvalues --    2.05568   2.06768   2.09729   2.09987   2.12134
 Alpha virt. eigenvalues --    2.14208   2.14494   2.18081   2.22508   2.23580
 Alpha virt. eigenvalues --    2.27628   2.29731   2.31349   2.35595   2.37314
 Alpha virt. eigenvalues --    2.39096   2.39403   2.41006   2.41419   2.41909
 Alpha virt. eigenvalues --    2.42707   2.43487   2.44054   2.45913   2.46743
 Alpha virt. eigenvalues --    2.48865   2.50629   2.51126   2.53038   2.55277
 Alpha virt. eigenvalues --    2.56596   2.57494   2.57994   2.58670   2.59790
 Alpha virt. eigenvalues --    2.60550   2.61561   2.64155   2.65392   2.69908
 Alpha virt. eigenvalues --    2.73383   2.75102   2.78609   2.79210   2.80017
 Alpha virt. eigenvalues --    2.82344   2.83806   2.85180   2.85795   2.88142
 Alpha virt. eigenvalues --    2.90050   2.91670   2.92513   2.94672   2.95842
 Alpha virt. eigenvalues --    2.96864   2.97750   2.99815   3.00227   3.01250
 Alpha virt. eigenvalues --    3.04074   3.04605   3.06122   3.07446   3.19974
          Condensed to atoms (all electrons):
               1          2          3          4          5          6
     1  C    4.571361   0.421795   0.377968   0.394074   0.394032  -0.058837
     2  C    0.421795   4.673992  -0.014018  -0.023346  -0.023341   0.398605
     3  H    0.377968  -0.014018   0.656453  -0.024834  -0.024838   0.008285
     4  H    0.394074  -0.023346  -0.024834   0.653185  -0.027912  -0.008668
     5  H    0.394032  -0.023341  -0.024838  -0.027912   0.653284  -0.008668
     6  C   -0.058837   0.398605   0.008285  -0.008668  -0.008668   4.752023
     7  H   -0.023834   0.375251  -0.006693  -0.010178   0.008804  -0.022825
     8  H   -0.023803   0.375180  -0.006705   0.008803  -0.010166  -0.022765
     9  C    0.009390  -0.046183  -0.000555   0.000467   0.000469   0.364298
    10  H   -0.004395  -0.027298  -0.000047  -0.001941   0.007553   0.374682
    11  H   -0.004377  -0.027357  -0.000045   0.007555  -0.001947   0.374818
    12  C   -0.000510   0.008368   0.000016  -0.000008  -0.000008  -0.043100
    13  H    0.000294  -0.006638   0.000008  -0.000053   0.000024  -0.022333
    14  H    0.000298  -0.006627   0.000008   0.000024  -0.000053  -0.022310
    15  C    0.000009  -0.000440   0.000000   0.000000   0.000000   0.008161
    16  H    0.000007   0.000318   0.000000   0.000004  -0.000010  -0.007043
    17  H    0.000007   0.000325   0.000000  -0.000010   0.000004  -0.007020
    18  C    0.000000   0.000008   0.000000   0.000000   0.000000  -0.000458
    19  H    0.000000   0.000003   0.000000   0.000000   0.000000   0.000376
    20  H    0.000000   0.000003   0.000000   0.000000   0.000000   0.000385
    21  C    0.000000   0.000000   0.000000   0.000000   0.000000   0.000008
    22  H    0.000000   0.000000   0.000000   0.000000   0.000000   0.000003
    23  H    0.000000   0.000000   0.000000   0.000000   0.000000   0.000004
    24  C    0.000000   0.000000   0.000000   0.000000   0.000000   0.000000
    25  H    0.000000   0.000000   0.000000   0.000000   0.000000   0.000000
    26  H    0.000000   0.000000   0.000000   0.000000   0.000000   0.000000
    27  C    0.000000   0.000000   0.000000   0.000000   0.000000   0.000000
    28  H    0.000000   0.000000   0.000000   0.000000   0.000000   0.000000
    29  H    0.000000   0.000000   0.000000   0.000000   0.000000   0.000000
    30  C    0.000000   0.000000   0.000000   0.000000   0.000000   0.000000
    31  H    0.000000   0.000000   0.000000   0.000000   0.000000   0.000000
    32  H    0.000000   0.000000   0.000000   0.000000   0.000000   0.000000
    33  C    0.000000   0.000000   0.000000   0.000000   0.000000   0.000000
    34  H    0.000000   0.000000   0.000000   0.000000   0.000000   0.000000
    35  H    0.000000   0.000000   0.000000   0.000000   0.000000   0.000000
    36  H    0.000000   0.000000   0.000000   0.000000   0.000000   0.000000
               7          8          9         10         11         12
     1  C   -0.023834  -0.023803   0.009390  -0.004395  -0.004377  -0.000510
     2  C    0.375251   0.375180  -0.046183  -0.027298  -0.027357   0.008368
     3  H   -0.006693  -0.006705  -0.000555  -0.000047  -0.000045   0.000016
     4  H   -0.010178   0.008803   0.000467  -0.001941   0.007555  -0.000008
     5  H    0.008804  -0.010166   0.000469   0.007553  -0.001947  -0.000008
     6  C   -0.022825  -0.022765   0.364298   0.374682   0.374818  -0.043100
     7  H    0.691008  -0.034880  -0.007352   0.009504  -0.011837   0.000362
     8  H   -0.034880   0.691079  -0.007367  -0.011877   0.009503   0.000357
     9  C   -0.007352  -0.007367   4.749801  -0.020959  -0.020974   0.364184
    10  H    0.009504  -0.011877  -0.020959   0.696303  -0.037159  -0.007314
    11  H   -0.011837   0.009503  -0.020974  -0.037159   0.696110  -0.007331
    12  C    0.000362   0.000357   0.364184  -0.007314  -0.007331   4.747455
    13  H    0.007902  -0.002030   0.372281   0.009442  -0.011952  -0.021275
    14  H   -0.002039   0.007900   0.372159  -0.011928   0.009442  -0.021188
    15  C    0.000004   0.000004  -0.044205   0.000436   0.000430   0.366973
    16  H    0.000015  -0.000040  -0.021621   0.007735  -0.002009   0.371734
    17  H   -0.000040   0.000015  -0.021696  -0.002020   0.007741   0.371954
    18  C    0.000000   0.000000   0.008388   0.000001   0.000001  -0.045449
    19  H   -0.000013   0.000005  -0.007105   0.000014  -0.000040  -0.021299
    20  H    0.000005  -0.000012  -0.007099  -0.000040   0.000014  -0.021248
    21  C    0.000000   0.000000  -0.000459   0.000000   0.000000   0.008410
    22  H    0.000000   0.000000   0.000389  -0.000012   0.000005  -0.007171
    23  H    0.000000   0.000000   0.000390   0.000005  -0.000012  -0.007095
    24  C    0.000000   0.000000   0.000008   0.000000   0.000000  -0.000449
    25  H    0.000000   0.000000   0.000003   0.000000   0.000000   0.000383
    26  H    0.000000   0.000000   0.000002   0.000000   0.000000   0.000388
    27  C    0.000000   0.000000   0.000000   0.000000   0.000000   0.000007
    28  H    0.000000   0.000000   0.000000   0.000000   0.000000   0.000000
    29  H    0.000000   0.000000   0.000000   0.000000   0.000000  -0.000003
    30  C    0.000000   0.000000   0.000000   0.000000   0.000000   0.000000
    31  H    0.000000   0.000000   0.000000   0.000000   0.000000   0.000000
    32  H    0.000000   0.000000   0.000000   0.000000   0.000000   0.000000
    33  C    0.000000   0.000000   0.000000   0.000000   0.000000   0.000000
    34  H    0.000000   0.000000   0.000000   0.000000   0.000000   0.000000
    35  H    0.000000   0.000000   0.000000   0.000000   0.000000   0.000000
    36  H    0.000000   0.000000   0.000000   0.000000   0.000000   0.000000
              13         14         15         16         17         18
     1  C    0.000294   0.000298   0.000009   0.000007   0.000007   0.000000
     2  C   -0.006638  -0.006627  -0.000440   0.000318   0.000325   0.000008
     3  H    0.000008   0.000008   0.000000   0.000000   0.000000   0.000000
     4  H   -0.000053   0.000024   0.000000   0.000004  -0.000010   0.000000
     5  H    0.000024  -0.000053   0.000000  -0.000010   0.000004   0.000000
     6  C   -0.022333  -0.022310   0.008161  -0.007043  -0.007020  -0.000458
     7  H    0.007902  -0.002039   0.000004   0.000015  -0.000040   0.000000
     8  H   -0.002030   0.007900   0.000004  -0.000040   0.000015   0.000000
     9  C    0.372281   0.372159  -0.044205  -0.021621  -0.021696   0.008388
    10  H    0.009442  -0.011928   0.000436   0.007735  -0.002020   0.000001
    11  H   -0.011952   0.009442   0.000430  -0.002009   0.007741   0.000001
    12  C   -0.021275  -0.021188   0.366973   0.371734   0.371954  -0.045449
    13  H    0.695953  -0.036325  -0.007212   0.009379  -0.011857   0.000400
    14  H   -0.036325   0.696118  -0.007238  -0.011926   0.009375   0.000393
    15  C   -0.007212  -0.007238   4.743267  -0.021119  -0.021161   0.368237
    16  H    0.009379  -0.011926  -0.021119   0.696054  -0.036187  -0.007222
    17  H   -0.011857   0.009375  -0.021161  -0.036187   0.695621  -0.007211
    18  C    0.000400   0.000393   0.368237  -0.007222  -0.007211   4.741925
    19  H    0.007783  -0.001993   0.371900   0.009367  -0.011915  -0.021473
    20  H   -0.002007   0.007778   0.371724  -0.011890   0.009368  -0.021515
    21  C    0.000003   0.000003  -0.044591   0.000398   0.000393   0.368894
    22  H    0.000014  -0.000040  -0.020891   0.007786  -0.001992   0.372118
    23  H   -0.000040   0.000014  -0.020902  -0.002002   0.007776   0.371682
    24  C    0.000000   0.000000   0.008247   0.000004   0.000002  -0.044506
    25  H   -0.000012   0.000005  -0.007074   0.000014  -0.000040  -0.020641
    26  H    0.000005  -0.000012  -0.007137  -0.000039   0.000014  -0.021498
    27  C    0.000000   0.000000  -0.000437   0.000000   0.000000   0.008266
    28  H    0.000000   0.000000   0.000463  -0.000012   0.000005  -0.007323
    29  H    0.000000   0.000000   0.000415   0.000005  -0.000012  -0.007330
    30  C    0.000000   0.000000   0.000007   0.000000   0.000000  -0.000435
    31  H    0.000000   0.000000   0.000006   0.000000   0.000000   0.000328
    32  H    0.000000   0.000000  -0.000010   0.000000   0.000000   0.000477
    33  C    0.000000   0.000000   0.000000   0.000000   0.000000   0.000003
    34  H    0.000000   0.000000   0.000000   0.000000   0.000000   0.000000
    35  H    0.000000   0.000000   0.000000   0.000000   0.000000   0.000000
    36  H    0.000000   0.000000   0.000000   0.000000   0.000000  -0.000001
              19         20         21         22         23         24
     1  C    0.000000   0.000000   0.000000   0.000000   0.000000   0.000000
     2  C    0.000003   0.000003   0.000000   0.000000   0.000000   0.000000
     3  H    0.000000   0.000000   0.000000   0.000000   0.000000   0.000000
     4  H    0.000000   0.000000   0.000000   0.000000   0.000000   0.000000
     5  H    0.000000   0.000000   0.000000   0.000000   0.000000   0.000000
     6  C    0.000376   0.000385   0.000008   0.000003   0.000004   0.000000
     7  H   -0.000013   0.000005   0.000000   0.000000   0.000000   0.000000
     8  H    0.000005  -0.000012   0.000000   0.000000   0.000000   0.000000
     9  C   -0.007105  -0.007099  -0.000459   0.000389   0.000390   0.000008
    10  H    0.000014  -0.000040   0.000000  -0.000012   0.000005   0.000000
    11  H   -0.000040   0.000014   0.000000   0.000005  -0.000012   0.000000
    12  C   -0.021299  -0.021248   0.008410  -0.007171  -0.007095  -0.000449
    13  H    0.007783  -0.002007   0.000003   0.000014  -0.000040   0.000000
    14  H   -0.001993   0.007778   0.000003  -0.000040   0.000014   0.000000
    15  C    0.371900   0.371724  -0.044591  -0.020891  -0.020902   0.008247
    16  H    0.009367  -0.011890   0.000398   0.007786  -0.002002   0.000004
    17  H   -0.011915   0.009368   0.000393  -0.001992   0.007776   0.000002
    18  C   -0.021473  -0.021515   0.368894   0.372118   0.371682  -0.044506
    19  H    0.695531  -0.036154  -0.007213   0.009354  -0.011852   0.000400
    20  H   -0.036154   0.695978  -0.007145  -0.011913   0.009350   0.000370
    21  C   -0.007213  -0.007145   4.741184  -0.022035  -0.021467   0.369914
    22  H    0.009354  -0.011913  -0.022035   0.694922  -0.036011  -0.006952
    23  H   -0.011852   0.009350  -0.021467  -0.036011   0.694189  -0.006827
    24  C    0.000400   0.000370   0.369914  -0.006952  -0.006827   4.770265
    25  H    0.007765  -0.001998   0.372205   0.009322  -0.011889  -0.021951
    26  H   -0.001991   0.007741   0.371776  -0.011806   0.009343  -0.022718
    27  C    0.000002   0.000004  -0.044841   0.000293   0.000357   0.396353
    28  H    0.000012  -0.000042  -0.017395   0.007691  -0.001997   0.370639
    29  H   -0.000035   0.000010  -0.021663  -0.002009   0.007319   0.370659
    30  C    0.000000   0.000000   0.008370   0.000007  -0.000004  -0.061304
    31  H   -0.000012   0.000005  -0.004851   0.000016  -0.000034  -0.027536
    32  H    0.000006  -0.000012  -0.010958  -0.000049   0.000003  -0.019598
    33  C    0.000000   0.000000  -0.000122   0.000001  -0.000006  -0.003936
    34  H    0.000000   0.000000   0.000016   0.000000   0.000000  -0.000239
    35  H    0.000000   0.000000  -0.000027   0.000000   0.000000  -0.000165
    36  H    0.000000   0.000000   0.000236  -0.000008   0.000002  -0.006365
              25         26         27         28         29         30
     1  C    0.000000   0.000000   0.000000   0.000000   0.000000   0.000000
     2  C    0.000000   0.000000   0.000000   0.000000   0.000000   0.000000
     3  H    0.000000   0.000000   0.000000   0.000000   0.000000   0.000000
     4  H    0.000000   0.000000   0.000000   0.000000   0.000000   0.000000
     5  H    0.000000   0.000000   0.000000   0.000000   0.000000   0.000000
     6  C    0.000000   0.000000   0.000000   0.000000   0.000000   0.000000
     7  H    0.000000   0.000000   0.000000   0.000000   0.000000   0.000000
     8  H    0.000000   0.000000   0.000000   0.000000   0.000000   0.000000
     9  C    0.000003   0.000002   0.000000   0.000000   0.000000   0.000000
    10  H    0.000000   0.000000   0.000000   0.000000   0.000000   0.000000
    11  H    0.000000   0.000000   0.000000   0.000000   0.000000   0.000000
    12  C    0.000383   0.000388   0.000007   0.000000  -0.000003   0.000000
    13  H   -0.000012   0.000005   0.000000   0.000000   0.000000   0.000000
    14  H    0.000005  -0.000012   0.000000   0.000000   0.000000   0.000000
    15  C   -0.007074  -0.007137  -0.000437   0.000463   0.000415   0.000007
    16  H    0.000014  -0.000039   0.000000  -0.000012   0.000005   0.000000
    17  H   -0.000040   0.000014   0.000000   0.000005  -0.000012   0.000000
    18  C   -0.020641  -0.021498   0.008266  -0.007323  -0.007330  -0.000435
    19  H    0.007765  -0.001991   0.000002   0.000012  -0.000035   0.000000
    20  H   -0.001998   0.007741   0.000004  -0.000042   0.000010   0.000000
    21  C    0.372205   0.371776  -0.044841  -0.017395  -0.021663   0.008370
    22  H    0.009322  -0.011806   0.000293   0.007691  -0.002009   0.000007
    23  H   -0.011889   0.009343   0.000357  -0.001997   0.007319  -0.000004
    24  C   -0.021951  -0.022718   0.396353   0.370639   0.370659  -0.061304
    25  H    0.693260  -0.036136  -0.007066   0.009261  -0.011850   0.000163
    26  H   -0.036136   0.695165  -0.006022  -0.012017   0.009364   0.000599
    27  C   -0.007066  -0.006022   4.719699  -0.025168  -0.034402   0.362785
    28  H    0.009261  -0.012017  -0.025168   0.691181  -0.036466  -0.006486
    29  H   -0.011850   0.009364  -0.034402  -0.036466   0.688593   0.007646
    30  C    0.000163   0.000599   0.362785  -0.006486   0.007646   4.751751
    31  H    0.007498  -0.002067   0.378431   0.009264  -0.011071  -0.025244
    32  H   -0.001938   0.008429   0.348720  -0.011392   0.010365  -0.011852
    33  C    0.000052  -0.000022  -0.050462   0.000038   0.002796   0.699229
    34  H    0.000001  -0.000001   0.010857   0.000056  -0.000305  -0.014504
    35  H   -0.000023   0.000008  -0.025147   0.000015   0.000389  -0.019473
    36  H    0.000009  -0.000017  -0.056939   0.005751  -0.000822   0.398234
              31         32         33         34         35         36
     1  C    0.000000   0.000000   0.000000   0.000000   0.000000   0.000000
     2  C    0.000000   0.000000   0.000000   0.000000   0.000000   0.000000
     3  H    0.000000   0.000000   0.000000   0.000000   0.000000   0.000000
     4  H    0.000000   0.000000   0.000000   0.000000   0.000000   0.000000
     5  H    0.000000   0.000000   0.000000   0.000000   0.000000   0.000000
     6  C    0.000000   0.000000   0.000000   0.000000   0.000000   0.000000
     7  H    0.000000   0.000000   0.000000   0.000000   0.000000   0.000000
     8  H    0.000000   0.000000   0.000000   0.000000   0.000000   0.000000
     9  C    0.000000   0.000000   0.000000   0.000000   0.000000   0.000000
    10  H    0.000000   0.000000   0.000000   0.000000   0.000000   0.000000
    11  H    0.000000   0.000000   0.000000   0.000000   0.000000   0.000000
    12  C    0.000000   0.000000   0.000000   0.000000   0.000000   0.000000
    13  H    0.000000   0.000000   0.000000   0.000000   0.000000   0.000000
    14  H    0.000000   0.000000   0.000000   0.000000   0.000000   0.000000
    15  C    0.000006  -0.000010   0.000000   0.000000   0.000000   0.000000
    16  H    0.000000   0.000000   0.000000   0.000000   0.000000   0.000000
    17  H    0.000000   0.000000   0.000000   0.000000   0.000000   0.000000
    18  C    0.000328   0.000477   0.000003   0.000000   0.000000  -0.000001
    19  H   -0.000012   0.000006   0.000000   0.000000   0.000000   0.000000
    20  H    0.000005  -0.000012   0.000000   0.000000   0.000000   0.000000
    21  C   -0.004851  -0.010958  -0.000122   0.000016  -0.000027   0.000236
    22  H    0.000016  -0.000049   0.000001   0.000000   0.000000  -0.000008
    23  H   -0.000034   0.000003  -0.000006   0.000000   0.000000   0.000002
    24  C   -0.027536  -0.019598  -0.003936  -0.000239  -0.000165  -0.006365
    25  H    0.007498  -0.001938   0.000052   0.000001  -0.000023   0.000009
    26  H   -0.002067   0.008429  -0.000022  -0.000001   0.000008  -0.000017
    27  C    0.378431   0.348720  -0.050462   0.010857  -0.025147  -0.056939
    28  H    0.009264  -0.011392   0.000038   0.000056   0.000015   0.005751
    29  H   -0.011071   0.010365   0.002796  -0.000305   0.000389  -0.000822
    30  C   -0.025244  -0.011852   0.699229  -0.014504  -0.019473   0.398234
    31  H    0.684798  -0.032740  -0.012344   0.000060   0.007996   0.008301
    32  H   -0.032740   0.690021   0.003247  -0.000552   0.000879  -0.004648
    33  C   -0.012344   0.003247   4.716545   0.380057   0.388780  -0.038131
    34  H    0.000060  -0.000552   0.380057   0.648449  -0.050276  -0.016079
    35  H    0.007996   0.000879   0.388780  -0.050276   0.650992   0.009674
    36  H    0.008301  -0.004648  -0.038131  -0.016079   0.009674   0.672630
 Mulliken charges:
               1
     1  C   -0.053481
     2  C   -0.078601
     3  H    0.034997
     4  H    0.032838
     5  H    0.032773
     6  C   -0.057620
     7  H    0.026833
     8  H    0.026800
     9  C   -0.036654
    10  H    0.019315
    11  H    0.019420
    12  C   -0.037143
    13  H    0.018245
    14  H    0.018161
    15  C   -0.037869
    16  H    0.018301
    17  H    0.018559
    18  C   -0.036061
    19  H    0.018577
    20  H    0.018341
    21  C   -0.039043
    22  H    0.018968
    23  H    0.019705
    24  C   -0.064315
    25  H    0.020677
    26  H    0.018650
    27  C    0.024708
    28  H    0.023919
    29  H    0.028407
    30  C   -0.089491
    31  H    0.019196
    32  H    0.031602
    33  C   -0.085723
    34  H    0.042460
    35  H    0.036378
    36  H    0.028173
 Sum of Mulliken charges =   0.00000
 Mulliken charges with hydrogens summed into heavy atoms:
               1
     1  C    0.047127
     2  C   -0.024969
     6  C   -0.018885
     9  C   -0.000248
    12  C   -0.000283
    15  C   -0.000952
    18  C    0.002612
    21  C    0.000285
    24  C   -0.011989
    27  C    0.075506
    30  C   -0.061318
    33  C   -0.006885
 Electronic spatial extent (au):  <R**2>=           6920.7682
 Charge=              0.0000 electrons
 Dipole moment (field-independent basis, Debye):
    X=             -0.4746    Y=              0.1113    Z=             -0.1615  Tot=              0.5135
 Quadrupole moment (field-independent basis, Debye-Ang):
   XX=            -85.7755   YY=            -80.9027   ZZ=            -78.2520
   XY=             -0.6524   XZ=             -0.3282   YZ=              0.6462
 Traceless Quadrupole moment (field-independent basis, Debye-Ang):
   XX=             -4.1321   YY=              0.7407   ZZ=              3.3914
   XY=             -0.6524   XZ=             -0.3282   YZ=              0.6462
 Octapole moment (field-independent basis, Debye-Ang**2):
  XXX=            -29.0834  YYY=              0.3502  ZZZ=             -1.0044  XYY=             -0.2100
  XXY=             -3.7673  XXZ=              2.2712  XZZ=              0.3770  YZZ=              0.5548
  YYZ=             -0.2843  XYZ=              4.7089
 Hexadecapole moment (field-independent basis, Debye-Ang**3):
 XXXX=          -9572.0940 YYYY=           -279.2939 ZZZZ=           -190.9714 XXXY=           -122.6114
 XXXZ=             46.3680 YYYX=              0.2842 YYYZ=             -0.6669 ZZZX=             -4.8108
 ZZZY=              2.8231 XXYY=          -1584.5094 XXZZ=          -1532.7806 YYZZ=            -73.0238
 XXYZ=             26.1862 YYXZ=             -1.5353 ZZXY=              5.6407
 N-N= 6.547367536401D+02 E-N=-2.395783021462D+03  KE= 4.650624294730D+02
   1 Symmetry operations used in ECPInt.
 ECPInt:  NShTT=   10440 NPrTT=   35208 LenC2=    8759 LenP2D=   21880.
 LDataN:  DoStor=T MaxTD1= 5 Len=  102
 Calling FoFJK, ICntrl=      2127 FMM=F ISym2X=0 I1Cent= 0 IOpClX= 0 NMat=1 NMatS=1 NMatT=0.
 ***** Axes restored to original set *****
 -------------------------------------------------------------------
 Center     Atomic                   Forces (Hartrees/Bohr)
 Number     Number              X              Y              Z
 -------------------------------------------------------------------
      1        6           0.005899369    0.000007392    0.008759039
      2        6          -0.015542902   -0.000015215   -0.013124783
      3        1           0.003363533   -0.000000733   -0.004685524
      4        1          -0.002699119    0.003584061   -0.002778969
      5        1          -0.002699736   -0.003592364   -0.002780687
      6        6           0.021462264    0.000036244    0.014428552
      7        1           0.003036093    0.003845223    0.004288194
      8        1           0.003047933   -0.003840284    0.004287479
      9        6          -0.021498210   -0.000059327   -0.014609271
     10        1          -0.003899970   -0.004382414   -0.002727960
     11        1          -0.003905024    0.004368448   -0.002738010
     12        6           0.021507087    0.000100184    0.014607500
     13        1           0.003872254    0.004297932    0.002626263
     14        1           0.003901225   -0.004277911    0.002630188
     15        6          -0.021467709   -0.000126072   -0.014447128
     16        1          -0.003898351   -0.004316779   -0.002620461
     17        1          -0.003911828    0.004277379   -0.002644393
     18        6           0.020869629    0.000254186    0.014688125
     19        1           0.003867533    0.004312387    0.002629803
     20        1           0.003922857   -0.004270866    0.002647428
     21        6          -0.020835156   -0.000480955   -0.013264645
     22        1          -0.003855978   -0.004315586   -0.002633930
     23        1          -0.003890840    0.004224766   -0.002656641
     24        6           0.018031922   -0.000424359    0.010698195
     25        1           0.003845984    0.004298827    0.002626696
     26        1           0.003968068   -0.004224987    0.002689364
     27        6          -0.014678264   -0.005976269    0.001102310
     28        1          -0.003654273   -0.003976124   -0.002274939
     29        1          -0.003808654    0.003710089   -0.001461731
     30        6           0.007600092    0.014336059    0.008300108
     31        1           0.001607733    0.004420495    0.002539664
     32        1           0.006679820   -0.005612307   -0.000763263
     33        6           0.002628717   -0.010434030   -0.007586617
     34        1          -0.005137916   -0.004483268    0.009051837
     35        1           0.002871098    0.011231153   -0.004215498
     36        1          -0.006599282   -0.002494979   -0.010586293
 -------------------------------------------------------------------
 Cartesian Forces:  Max     0.021507087 RMS     0.008021562
 -----------------------------------------------------------------------------------------------
                       Internal Coordinate Forces (Hartree/Bohr or radian)
  Cent   Atom   N1       Length/X         N2         Alpha/Y        N3         Beta/Z          J
 -----------------------------------------------------------------------------------------------
      1  C 
      2  C        1   0.001486(     1)
      3  H        1   0.004778(     2)      2   0.006682(    36)
      4  H        1   0.005151(     3)      2   0.002067(    37)      3  -0.001093(    70)     0
      5  H        1   0.005159(     4)      2   0.002064(    38)      3   0.001085(    71)     0
      6  C        2  -0.002994(     5)      1   0.010379(    39)      3  -0.000013(    72)     0
      7  H        2   0.006003(     6)      1   0.005087(    40)      3  -0.001129(    73)     0
      8  H        2   0.006005(     7)      1   0.005083(    41)      3   0.001146(    74)     0
      9  C        6  -0.002950(     8)      2   0.011593(    42)      1  -0.000035(    75)     0
     10  H        6   0.006351(     9)      2   0.001109(    43)      1  -0.002175(    76)     0
     11  H        6   0.006348(    10)      2   0.001105(    44)      1   0.002178(    77)     0
     12  C        9  -0.002914(    11)      6   0.011666(    45)      2  -0.000023(    78)     0
     13  H        9   0.006234(    12)      6   0.001220(    46)      2  -0.002099(    79)     0
     14  H        9   0.006238(    13)      6   0.001203(    47)      2   0.002125(    80)     0
     15  C       12  -0.002939(    14)      9   0.011651(    48)      6  -0.000043(    81)     0
     16  H       12   0.006258(    15)      9   0.001269(    49)      6  -0.002104(    82)     0
     17  H       12   0.006250(    16)      9   0.001260(    50)      6   0.002104(    83)     0
     18  C       15  -0.002961(    17)     12   0.011537(    51)      9  -0.000043(    84)     0
     19  H       15   0.006241(    18)     12   0.001240(    52)      9  -0.002104(    85)     0
     20  H       15   0.006252(    19)     12   0.001212(    53)      9   0.002142(    86)     0
     21  C       18  -0.003165(    20)     15   0.011225(    54)     12  -0.000044(    87)     0
     22  H       18   0.006237(    21)     15   0.001199(    55)     12  -0.002132(    88)     0
     23  H       18   0.006205(    22)     15   0.001231(    56)     12   0.002131(    89)     0
     24  C       21  -0.003398(    23)     18   0.010382(    57)     15  -0.000181(    90)     0
     25  H       21   0.006215(    24)     18   0.001271(    58)     15  -0.002110(    91)     0
     26  H       21   0.006256(    25)     18   0.001281(    59)     15   0.002238(    92)     0
     27  C       24  -0.002170(    26)     21   0.009819(    60)     18   0.001087(    93)     0
     28  H       24   0.005746(    27)     21   0.001467(    61)     18  -0.001778(    94)     0
     29  H       24   0.005350(    28)     21   0.002663(    62)     18   0.000725(    95)     0
     30  C       27  -0.003220(    29)     24   0.000823(    63)     21  -0.007343(    96)     0
     31  H       27   0.005184(    30)     24   0.001825(    64)     21   0.001883(    97)     0
     32  H       27   0.007498(    31)     24  -0.007308(    65)     21   0.005531(    98)     0
     33  C       30  -0.004374(    32)     27   0.004000(    66)     24   0.019683(    99)     0
     34  H       33   0.006255(    33)     30   0.001330(    67)     27   0.016445(   100)     0
     35  H       33   0.007687(    34)     30   0.001788(    68)     27   0.016941(   101)     0
     36  H       30   0.007923(    35)     27  -0.002985(    69)     24  -0.018058(   102)     0
 -----------------------------------------------------------------------------------------------
 Internal  Forces:  Max     0.019683212 RMS     0.005978179

 GradGradGradGradGradGradGradGradGradGradGradGradGradGradGradGradGradGrad
 Berny optimization.
 Search for a local minimum.
 Step number   1 out of a maximum of  200
 All quantities printed in internal units (Hartrees-Bohrs-Radians)
 Second derivative matrix not updated -- first step.
 ITU=  0
     Eigenvalues ---    0.01015   0.01016   0.01028   0.01028   0.01028
     Eigenvalues ---    0.01029   0.01040   0.01074   0.01311   0.01978
     Eigenvalues ---    0.08427   0.13370   0.15083   0.15094   0.15113
     Eigenvalues ---    0.15114   0.15115   0.15120   0.15131   0.15296
     Eigenvalues ---    0.15819   0.16000   0.17236   0.17287   0.17292
     Eigenvalues ---    0.17292   0.17293   0.17293   0.17305   0.17324
     Eigenvalues ---    0.17542   0.19879   0.20947   0.23861   0.29418
     Eigenvalues ---    0.29426   0.29460   0.29461   0.29462   0.29462
     Eigenvalues ---    0.29463   0.29566   0.30331   0.32194   0.33834
     Eigenvalues ---    0.33966   0.33967   0.34027   0.34033   0.34033
     Eigenvalues ---    0.34036   0.34036   0.34037   0.34037   0.34037
     Eigenvalues ---    0.34037   0.34037   0.34037   0.34037   0.34037
     Eigenvalues ---    0.34064   0.34104   0.34104   0.34276   0.34277
     Eigenvalues ---    0.34299   0.35012   0.35313   0.35332   0.36582
     Eigenvalues ---    0.36627   0.36659   0.36681   0.36682   0.36682
     Eigenvalues ---    0.36685   0.36693   0.37162   0.39241   0.39324
     Eigenvalues ---    0.39326   0.39326   0.39328   0.39330   0.39338
     Eigenvalues ---    0.39352   0.39422   0.39725   0.42862   0.42864
     Eigenvalues ---    0.42864   0.42864   0.42872   0.42883   0.42893
     Eigenvalues ---    0.42924   0.43146   0.48000   0.53119   0.57454
     Eigenvalues --- 1000.000001000.00000
 RFO step:  Lambda=-1.07093995D-02 EMin= 1.01455471D-02
 Linear search not attempted -- first point.
 Variable       Old X    -DE/DX   Delta X   Delta X   Delta X     New X
                                 (Linear)    (Quad)   (Total)
    B1        2.87308   0.00149   0.00000   0.00473   0.00473   2.87782
    B2        2.06829   0.00478   0.00000   0.01351   0.01351   2.08180
    A2        1.92443   0.00668   0.00000   0.03044   0.03044   1.95486
    B3        2.06866   0.00515   0.00000   0.01457   0.01457   2.08324
    A3        1.93731   0.00207   0.00000   0.00044   0.00044   1.93774
    D3        4.19337  -0.00109   0.00000  -0.00973  -0.00973   4.18364
    B4        2.06865   0.00516   0.00000   0.01459   0.01459   2.08324
    A4        1.93737   0.00206   0.00000   0.00017   0.00017   1.93754
    D4        2.08990   0.00109   0.00000   0.00891   0.00891   2.09881
    B5        2.88837  -0.00299   0.00000  -0.00977  -0.00977   2.87860
    A5        1.94593   0.01038   0.00000   0.02916   0.02916   1.97509
    D5        3.14200  -0.00001   0.00000   0.00274   0.00274   3.14475
    B6        2.07156   0.00600   0.00000   0.01706   0.01706   2.08862
    A6        1.90492   0.00509   0.00000   0.01057   0.01057   1.91550
    D6        1.02042  -0.00113   0.00000  -0.00379  -0.00379   1.01664
    B7        2.07156   0.00600   0.00000   0.01707   0.01707   2.08863
    A7        1.90497   0.00508   0.00000   0.01106   0.01106   1.91602
    D7        5.26348   0.00115   0.00000   0.00918   0.00918   5.27266
    B8        2.89047  -0.00295   0.00000  -0.00966  -0.00966   2.88081
    A8        1.94309   0.01159   0.00000   0.03979   0.03979   1.98288
    D8        3.14277  -0.00003   0.00000   0.00637   0.00637   3.14914
    B9        2.07275   0.00635   0.00000   0.01809   0.01809   2.09084
    A9        1.91232   0.00111   0.00000  -0.00573  -0.00573   1.90659
    D9        1.02439  -0.00218   0.00000  -0.00934  -0.00934   1.01505
   B10        2.07275   0.00635   0.00000   0.01808   0.01808   2.09083
   A10        1.91235   0.00110   0.00000  -0.00609  -0.00609   1.90627
   D10        5.26097   0.00218   0.00000   0.01998   0.01998   5.28095
   B11        2.89051  -0.00291   0.00000  -0.00955  -0.00955   2.88096
   A11        1.94306   0.01167   0.00000   0.04029   0.04029   1.98335
   D11        3.14246  -0.00002   0.00000   0.00269   0.00269   3.14515
   B12        2.07269   0.00623   0.00000   0.01776   0.01776   2.09045
   A12        1.91222   0.00122   0.00000  -0.00581  -0.00581   1.90641
   D12        1.02436  -0.00210   0.00000  -0.01188  -0.01188   1.01249
[...]
     5  H    0.008655  -0.009877   0.000444   0.007734  -0.001920  -0.000007
     6  C   -0.024714  -0.024678   0.366745   0.372480   0.372538  -0.039125
     7  H    0.692870  -0.036038  -0.007319   0.009829  -0.012002   0.000334
     8  H   -0.036038   0.692914  -0.007332  -0.012023   0.009827   0.000331
     9  C   -0.007319  -0.007332   4.747577  -0.021994  -0.021976   0.368659
    10  H    0.009829  -0.012023  -0.021994   0.700053  -0.038211  -0.007493
    11  H   -0.012002   0.009827  -0.021976  -0.038211   0.699916  -0.007496
    12  C    0.000334   0.000331   0.368659  -0.007493  -0.007496   4.743268
    13  H    0.008376  -0.002086   0.370140   0.009713  -0.012056  -0.022396
    14  H   -0.002091   0.008379   0.370106  -0.012037   0.009714  -0.022377
    15  C    0.000004   0.000004  -0.040783   0.000404   0.000401   0.372403
    16  H    0.000020  -0.000042  -0.022816   0.008135  -0.002025   0.369847
    17  H   -0.000042   0.000020  -0.022831  -0.002029   0.008131   0.369949
    18  C    0.000000   0.000000   0.007929   0.000001   0.000001  -0.042126
    19  H   -0.000011   0.000004  -0.007134   0.000018  -0.000041  -0.022542
    20  H    0.000004  -0.000011  -0.007148  -0.000041   0.000018  -0.022541
    21  C    0.000000   0.000000  -0.000406   0.000000   0.000000   0.007960
    22  H    0.000000   0.000000   0.000358  -0.000011   0.000005  -0.007207
    23  H    0.000000   0.000000   0.000351   0.000005  -0.000011  -0.007107
    24  C    0.000000   0.000000   0.000006   0.000000   0.000000  -0.000394
    25  H    0.000000   0.000000   0.000003   0.000000   0.000000   0.000345
    26  H    0.000000   0.000000   0.000002   0.000000   0.000000   0.000356
    27  C    0.000000   0.000000   0.000000   0.000000   0.000000   0.000006
    28  H    0.000000   0.000000   0.000000   0.000000   0.000000   0.000000
    29  H    0.000000   0.000000   0.000000   0.000000   0.000000  -0.000003
    30  C    0.000000   0.000000   0.000000   0.000000   0.000000   0.000000
    31  H    0.000000   0.000000   0.000000   0.000000   0.000000   0.000000
    32  H    0.000000   0.000000   0.000000   0.000000   0.000000   0.000000
    33  C    0.000000   0.000000   0.000000   0.000000   0.000000   0.000000
    34  H    0.000000   0.000000   0.000000   0.000000   0.000000   0.000000
    35  H    0.000000   0.000000   0.000000   0.000000   0.000000   0.000000
    36  H    0.000000   0.000000   0.000000   0.000000   0.000000   0.000000
              13         14         15         16         17         18
     1  C    0.000270   0.000273   0.000007   0.000007   0.000007   0.000000
     2  C   -0.006705  -0.006699  -0.000377   0.000292   0.000295   0.000006
     3  H    0.000008   0.000008   0.000000   0.000000   0.000000   0.000000
     4  H   -0.000050   0.000025   0.000000   0.000003  -0.000009   0.000000
     5  H    0.000025  -0.000051   0.000000  -0.000009   0.000003   0.000000
     6  C   -0.023516  -0.023541   0.007664  -0.007085  -0.007069  -0.000401
     7  H    0.008376  -0.002091   0.000004   0.000020  -0.000042   0.000000
     8  H   -0.002086   0.008379   0.000004  -0.000042   0.000020   0.000000
     9  C    0.370140   0.370106  -0.040783  -0.022816  -0.022831   0.007929
    10  H    0.009713  -0.012037   0.000404   0.008135  -0.002029   0.000001
    11  H   -0.012056   0.009714   0.000401  -0.002025   0.008131   0.000001
    12  C   -0.022396  -0.022377   0.372403   0.369847   0.369949  -0.042126
    13  H    0.699428  -0.037456  -0.007279   0.009662  -0.012011   0.000366
    14  H   -0.037456   0.699569  -0.007293  -0.012037   0.009659   0.000363
    15  C   -0.007279  -0.007293   4.738801  -0.022380  -0.022383   0.373418
    16  H    0.009662  -0.012037  -0.022380   0.699219  -0.037344  -0.007264
    17  H   -0.012011   0.009659  -0.022383  -0.037344   0.698873  -0.007230
    18  C    0.000366   0.000363   0.373418  -0.007264  -0.007230   4.738054
    19  H    0.008185  -0.002023   0.369974   0.009650  -0.012042  -0.022693
    20  H   -0.002028   0.008187   0.369806  -0.012033   0.009653  -0.022683
    21  C    0.000003   0.000003  -0.041196   0.000362   0.000361   0.372981
    22  H    0.000019  -0.000041  -0.022110   0.008182  -0.002019   0.369952
    23  H   -0.000041   0.000019  -0.022378  -0.002021   0.008160   0.370247
    24  C    0.000000   0.000000   0.007754   0.000004   0.000003  -0.040714
    25  H   -0.000011   0.000005  -0.007016   0.000019  -0.000040  -0.022383
    26  H    0.000005  -0.000011  -0.007316  -0.000040   0.000019  -0.022214
    27  C    0.000000   0.000000  -0.000385   0.000000   0.000000   0.007851
    28  H    0.000000   0.000000   0.000417  -0.000011   0.000005  -0.007641
    29  H    0.000000   0.000000   0.000389   0.000005  -0.000010  -0.007430
    30  C    0.000000   0.000000   0.000007   0.000000   0.000000  -0.000411
    31  H    0.000000   0.000000   0.000003   0.000000   0.000000   0.000270
    32  H    0.000000   0.000000  -0.000007   0.000000   0.000000   0.000470
    33  C    0.000000   0.000000   0.000000   0.000000   0.000000   0.000000
    34  H    0.000000   0.000000   0.000000   0.000000   0.000000   0.000000
    35  H    0.000000   0.000000   0.000000   0.000000   0.000000   0.000000
    36  H    0.000000   0.000000   0.000000   0.000000   0.000000  -0.000003
              19         20         21         22         23         24
     1  C    0.000000   0.000000   0.000000   0.000000   0.000000   0.000000
     2  C    0.000003   0.000003   0.000000   0.000000   0.000000   0.000000
     3  H    0.000000   0.000000   0.000000   0.000000   0.000000   0.000000
     4  H    0.000000   0.000000   0.000000   0.000000   0.000000   0.000000
     5  H    0.000000   0.000000   0.000000   0.000000   0.000000   0.000000
     6  C    0.000347   0.000351   0.000006   0.000003   0.000004   0.000000
     7  H   -0.000011   0.000004   0.000000   0.000000   0.000000   0.000000
     8  H    0.000004  -0.000011   0.000000   0.000000   0.000000   0.000000
     9  C   -0.007134  -0.007148  -0.000406   0.000358   0.000351   0.000006
    10  H    0.000018  -0.000041   0.000000  -0.000011   0.000005   0.000000
    11  H   -0.000041   0.000018   0.000000   0.000005  -0.000011   0.000000
    12  C   -0.022542  -0.022541   0.007960  -0.007207  -0.007107  -0.000394
    13  H    0.008185  -0.002028   0.000003   0.000019  -0.000041   0.000000
    14  H   -0.002023   0.008187   0.000003  -0.000041   0.000019   0.000000
    15  C    0.369974   0.369806  -0.041196  -0.022110  -0.022378   0.007754
    16  H    0.009650  -0.012033   0.000362   0.008182  -0.002021   0.000004
    17  H   -0.012042   0.009653   0.000361  -0.002019   0.008160   0.000003
    18  C   -0.022693  -0.022683   0.372981   0.369952   0.370247  -0.040714
    19  H    0.698886  -0.037325  -0.007243   0.009633  -0.012003   0.000367
    20  H   -0.037325   0.699323  -0.007203  -0.012023   0.009626   0.000353
    21  C   -0.007243  -0.007203   4.738201  -0.022936  -0.022859   0.371937
    22  H    0.009633  -0.012023  -0.022936   0.698329  -0.037176  -0.007063
    23  H   -0.012003   0.009626  -0.022859  -0.037176   0.697345  -0.006802
    24  C    0.000367   0.000353   0.371937  -0.007063  -0.006802   4.768796
    25  H    0.008138  -0.002029   0.370888   0.009604  -0.012010  -0.023507
    26  H   -0.002009   0.008162   0.369319  -0.011956   0.009607  -0.022899
    27  C    0.000003   0.000004  -0.043017   0.000268   0.000331   0.405405
    28  H    0.000017  -0.000042  -0.019061   0.008013  -0.001984   0.369909
    29  H   -0.000036   0.000015  -0.022244  -0.002009   0.007624   0.367987
    30  C    0.000000   0.000000   0.008334   0.000010  -0.000004  -0.060457
    31  H   -0.000011   0.000004  -0.005773   0.000019  -0.000030  -0.025840
    32  H    0.000005  -0.000011  -0.010411  -0.000052   0.000009  -0.022592
    33  C    0.000000   0.000000   0.000008   0.000001  -0.000009  -0.007787
    34  H    0.000000   0.000000   0.000015   0.000000   0.000000  -0.000077
    35  H    0.000000   0.000000  -0.000027   0.000000   0.000001  -0.000610
    36  H    0.000000   0.000000   0.000253  -0.000008   0.000003  -0.006797
              25         26         27         28         29         30
     1  C    0.000000   0.000000   0.000000   0.000000   0.000000   0.000000
     2  C    0.000000   0.000000   0.000000   0.000000   0.000000   0.000000
     3  H    0.000000   0.000000   0.000000   0.000000   0.000000   0.000000
     4  H    0.000000   0.000000   0.000000   0.000000   0.000000   0.000000
     5  H    0.000000   0.000000   0.000000   0.000000   0.000000   0.000000
     6  C    0.000000   0.000000   0.000000   0.000000   0.000000   0.000000
     7  H    0.000000   0.000000   0.000000   0.000000   0.000000   0.000000
     8  H    0.000000   0.000000   0.000000   0.000000   0.000000   0.000000
     9  C    0.000003   0.000002   0.000000   0.000000   0.000000   0.000000
    10  H    0.000000   0.000000   0.000000   0.000000   0.000000   0.000000
    11  H    0.000000   0.000000   0.000000   0.000000   0.000000   0.000000
    12  C    0.000345   0.000356   0.000006   0.000000  -0.000003   0.000000
    13  H   -0.000011   0.000005   0.000000   0.000000   0.000000   0.000000
    14  H    0.000005  -0.000011   0.000000   0.000000   0.000000   0.000000
    15  C   -0.007016  -0.007316  -0.000385   0.000417   0.000389   0.000007
    16  H    0.000019  -0.000040   0.000000  -0.000011   0.000005   0.000000
    17  H   -0.000040   0.000019   0.000000   0.000005  -0.000010   0.000000
    18  C   -0.022383  -0.022214   0.007851  -0.007641  -0.007430  -0.000411
    19  H    0.008138  -0.002009   0.000003   0.000017  -0.000036   0.000000
    20  H   -0.002029   0.008162   0.000004  -0.000042   0.000015   0.000000
    21  C    0.370888   0.369319  -0.043017  -0.019061  -0.022244   0.008334
    22  H    0.009604  -0.011956   0.000268   0.008013  -0.002009   0.000010
    23  H   -0.012010   0.009607   0.000331  -0.001984   0.007624  -0.000004
    24  C   -0.023507  -0.022899   0.405405   0.369909   0.367987  -0.060457
    25  H    0.696941  -0.037258  -0.006840   0.009513  -0.011851   0.000275
    26  H   -0.037258   0.697981  -0.006575  -0.012040   0.009504   0.000536
    27  C   -0.006840  -0.006575   4.715629  -0.027464  -0.034048   0.373672
    28  H    0.009513  -0.012040  -0.027464   0.694200  -0.037246  -0.005456
    29  H   -0.011851   0.009504  -0.034048  -0.037246   0.692947   0.006727
    30  C    0.000275   0.000536   0.373672  -0.005456   0.006727   4.724167
    31  H    0.007737  -0.001967   0.373811   0.009553  -0.011908  -0.023842
    32  H   -0.002028   0.008954   0.348778  -0.011216   0.010683  -0.011714
    33  C    0.000031  -0.000016  -0.051894  -0.000495   0.004362   0.708947
    34  H    0.000001  -0.000001   0.010336   0.000052  -0.000382  -0.012497
    35  H   -0.000020   0.000006  -0.022399   0.000047   0.000508  -0.019699
    36  H    0.000014  -0.000025  -0.056953   0.006811  -0.001111   0.393331
              31         32         33         34         35         36
     1  C    0.000000   0.000000   0.000000   0.000000   0.000000   0.000000
     2  C    0.000000   0.000000   0.000000   0.000000   0.000000   0.000000
     3  H    0.000000   0.000000   0.000000   0.000000   0.000000   0.000000
     4  H    0.000000   0.000000   0.000000   0.000000   0.000000   0.000000
     5  H    0.000000   0.000000   0.000000   0.000000   0.000000   0.000000
     6  C    0.000000   0.000000   0.000000   0.000000   0.000000   0.000000
     7  H    0.000000   0.000000   0.000000   0.000000   0.000000   0.000000
     8  H    0.000000   0.000000   0.000000   0.000000   0.000000   0.000000
     9  C    0.000000   0.000000   0.000000   0.000000   0.000000   0.000000
    10  H    0.000000   0.000000   0.000000   0.000000   0.000000   0.000000
    11  H    0.000000   0.000000   0.000000   0.000000   0.000000   0.000000
    12  C    0.000000   0.000000   0.000000   0.000000   0.000000   0.000000
    13  H    0.000000   0.000000   0.000000   0.000000   0.000000   0.000000
    14  H    0.000000   0.000000   0.000000   0.000000   0.000000   0.000000
    15  C    0.000003  -0.000007   0.000000   0.000000   0.000000   0.000000
    16  H    0.000000   0.000000   0.000000   0.000000   0.000000   0.000000
    17  H    0.000000   0.000000   0.000000   0.000000   0.000000   0.000000
    18  C    0.000270   0.000470   0.000000   0.000000   0.000000  -0.000003
    19  H   -0.000011   0.000005   0.000000   0.000000   0.000000   0.000000
    20  H    0.000004  -0.000011   0.000000   0.000000   0.000000   0.000000
    21  C   -0.005773  -0.010411   0.000008   0.000015  -0.000027   0.000253
    22  H    0.000019  -0.000052   0.000001   0.000000   0.000000  -0.000008
    23  H   -0.000030   0.000009  -0.000009   0.000000   0.000001   0.000003
    24  C   -0.025840  -0.022592  -0.007787  -0.000077  -0.000610  -0.006797
    25  H    0.007737  -0.002028   0.000031   0.000001  -0.000020   0.000014
    26  H   -0.001967   0.008954  -0.000016  -0.000001   0.000006  -0.000025
    27  C    0.373811   0.348778  -0.051894   0.010336  -0.022399  -0.056953
    28  H    0.009553  -0.011216  -0.000495   0.000052   0.000047   0.006811
    29  H   -0.011908   0.010683   0.004362  -0.000382   0.000508  -0.001111
    30  C   -0.023842  -0.011714   0.708947  -0.012497  -0.019699   0.393331
    31  H    0.686695  -0.034604  -0.013820  -0.000007   0.008516   0.008652
    32  H   -0.034604   0.691582   0.005586  -0.000486   0.000497  -0.005506
    33  C   -0.013820   0.005586   4.719030   0.377990   0.385269  -0.036996
    34  H   -0.000007  -0.000486   0.377990   0.646505  -0.049791  -0.017172
    35  H    0.008516   0.000497   0.385269  -0.049791   0.649489   0.009612
    36  H    0.008652  -0.005506  -0.036996  -0.017172   0.009612   0.677889
 Mulliken charges:
               1
     1  C   -0.062148
     2  C   -0.077803
     3  H    0.039272
     4  H    0.035132
     5  H    0.035070
     6  C   -0.062555
     7  H    0.028175
     8  H    0.028146
     9  C   -0.039941
    10  H    0.020361
    11  H    0.020450
    12  C   -0.039930
    13  H    0.019436
    14  H    0.019347
    15  C   -0.040555
    16  H    0.019700
    17  H    0.019922
    18  C   -0.038719
    19  H    0.019883
    20  H    0.019606
    21  C   -0.038258
    22  H    0.020216
    23  H    0.021104
    24  C   -0.066985
    25  H    0.021477
    26  H    0.019874
    27  C    0.013479
    28  H    0.024119
    29  H    0.027527
    30  C   -0.081927
    31  H    0.022543
    32  H    0.032065
    33  C   -0.090207
    34  H    0.045515
    35  H    0.038604
    36  H    0.028005
 Sum of Mulliken charges =   0.00000
 Mulliken charges with hydrogens summed into heavy atoms:
               1
     1  C    0.047326
     2  C   -0.021482
     6  C   -0.021744
     9  C   -0.001159
    12  C   -0.000308
    15  C   -0.001066
    18  C    0.002601
    21  C    0.003094
    24  C   -0.015339
    27  C    0.068087
    30  C   -0.053922
    33  C   -0.006088
 Electronic spatial extent (au):  <R**2>=           6945.4948
 Charge=              0.0000 electrons
 Dipole moment (field-independent basis, Debye):
    X=             -0.5005    Y=              0.0368    Z=             -0.0852  Tot=              0.5090
 Quadrupole moment (field-independent basis, Debye-Ang):
   XX=            -85.3323   YY=            -81.1919   ZZ=            -78.5284
   XY=             -1.1460   XZ=             -0.0419   YZ=              0.2238
 Traceless Quadrupole moment (field-independent basis, Debye-Ang):
   XX=             -3.6481   YY=              0.4923   ZZ=              3.1558
   XY=             -1.1460   XZ=             -0.0419   YZ=              0.2238
 Octapole moment (field-independent basis, Debye-Ang**2):
  XXX=            -39.2090  YYY=              0.3027  ZZZ=              0.0039  XYY=             -1.0564
  XXY=            -10.2239  XXZ=              3.4255  XZZ=              3.1301  YZZ=              0.2612
  YYZ=             -0.5576  XYZ=              3.1035
 Hexadecapole moment (field-independent basis, Debye-Ang**3):
 XXXX=          -9588.1643 YYYY=           -286.2254 ZZZZ=           -193.9041 XXXY=           -153.0919
 XXXZ=             37.1907 YYYX=             -0.2403 YYYZ=             -2.7244 ZZZX=              2.2982
 ZZZY=              3.1441 XXYY=          -1596.5115 XXZZ=          -1534.6313 YYZZ=            -76.6222
 XXYZ=             13.3728 YYXZ=             -3.8021 ZZXY=              3.6427
 N-N= 6.538685151565D+02 E-N=-2.393801357576D+03  KE= 4.648769580657D+02
 1\1\GINC-NODE0060\POpt\RM06\def2SVP\C12H24\JGOODPAS\17-Oct-2017\1\\# O
 pt=(Z-mat,maxcycle=200) m06/def2svp Integral=SuperFineGrid\\C12H24\\0,
 1\C\C,1,B1\H,1,B2,2,A2\H,1,B3,2,A3,3,D3,0\H,1,B4,2,A4,3,D4,0\C,2,B5,1,
 A5,3,D5,0\H,2,B6,1,A6,3,D6,0\H,2,B7,1,A7,3,D7,0\C,6,B8,2,A8,1,D8,0\H,6
 ,B9,2,A9,1,D9,0\H,6,B10,2,A10,1,D10,0\C,9,B11,6,A11,2,D11,0\H,9,B12,6,
 A12,2,D12,0\H,9,B13,6,A13,2,D13,0\C,12,B14,9,A14,6,D14,0\H,12,B15,9,A1
 5,6,D15,0\H,12,B16,9,A16,6,D16,0\C,15,B17,12,A17,9,D17,0\H,15,B18,12,A
 18,9,D18,0\H,15,B19,12,A19,9,D19,0\C,18,B20,15,A20,12,D20,0\H,18,B21,1
 5,A21,12,D21,0\H,18,B22,15,A22,12,D22,0\C,21,B23,18,A23,15,D23,0\H,21,
 B24,18,A24,15,D24,0\H,21,B25,18,A25,15,D25,0\C,24,B26,21,A26,18,D26,0\
 H,24,B27,21,A27,18,D27,0\H,24,B28,21,A28,18,D28,0\C,27,B29,24,A29,21,D
 29,0\H,27,B30,24,A30,21,D30,0\H,27,B31,24,A31,21,D31,0\C,30,B32,27,A32
 ,24,D32,0\H,33,B33,30,A33,27,D33,0\H,33,B34,30,A34,27,D34,0\H,30,B35,2
 7,A35,24,D35,0\\B1=1.5159417\B2=1.10117778\A2=112.2657703\B3=1.1033780
 6\A3=111.19279574\D3=239.5663345\B4=1.10338427\A4=111.18706119\D4=120.
 42760101\B5=1.51875638\A5=113.11845752\D5=180.04686952\B6=1.10691111\A
 6=109.99802557\D6=57.79846802\B7=1.1069139\A7=109.99894747\D7=302.2992
 0291\B8=1.51753315\A8=113.76586788\D8=180.03675422\B9=1.1086307\A9=109
 .37061541\D9=57.37877815\B10=1.10862974\A10=109.36926826\D10=302.69355
 742\B11=1.51768064\A11=113.755448\D11=180.03544198\B12=1.10845586\A12=
 109.38933294\D12=57.40938583\B13=1.10846798\A13=109.38859982\D13=302.6
 6565583\B14=1.51767288\A14=113.73199723\D14=180.04057602\B15=1.1084181
 7\A15=109.39740933\D15=57.41548431\B16=1.10840973\A16=109.39646245\D16
 =302.66390714\B17=1.51770738\A17=113.7164852\D17=180.02502459\B18=1.10
 839681\A18=109.39394478\D18=57.40849765\B19=1.10842316\A19=109.3931398
 4\D19=302.6561642\B20=1.51768391\A20=113.69708305\D20=180.02658342\B21
 =1.10837711\A21=109.39674773\D21=57.40841084\B22=1.10827458\A22=109.40
 635686\D22=302.63446103\B23=1.51756738\A23=113.56748013\D23=179.975398
 98\B24=1.10828071\A24=109.41477715\D24=57.43009909\B25=1.10834956\A25=
 109.43775213\D25=302.59276967\B26=1.5243675\A26=113.31095165\D26=180.4
 0751599\B27=1.10803232\A27=109.51032024\D27=57.87837488\B28=1.10718316
 \A28=109.85975915\D28=302.63813868\B29=1.49352495\A29=111.62966166\D29
 =181.06033651\B30=1.10652067\A30=109.58908237\D30=59.10587504\B31=1.10
 805188\A31=108.51471834\D31=303.59479804\B32=1.33306136\A32=125.341364
 14\D32=253.12234169\B33=1.09418233\A33=121.94308002\B34=1.09719543\A34
 =121.21905218\B35=1.10116466\A35=115.18744139\D35=60.86361318\D33=165.
 \D34=345.\\Version=ES64L-G09RevD.01\State=1-A\HF=-470.9772185\RMSD=6.1
 59e-09\RMSF=1.548e-03\Dipole=0.1184998,-0.0415022,-0.1560256\Quadrupol
 e=0.2478321,2.236376,-2.4842081,0.4006443,1.1920849,0.2311715\PG=C01 [
 X(C12H24)]\\@


 The number of Unix installations has grown to 10,
  with more expected.
                  -- The Unix Programmer's Manual,
                     2nd Edition, June, 1972.
 Job cpu time:       0 days  2 hours  7 minutes 59.7 seconds.
 File lengths (MBytes):  RWF=     40 Int=      0 D2E=      0 Chk=     18 Scr=      1
 Normal termination of Gaussian 09 at Tue Oct 17 17:08:26 2017.
7387.09user 292.64system 17:19.65elapsed 738%CPU (0avgtext+0avgdata 7495916maxresident)k
328560inputs+720600outputs (229major+186376135minor)pagefaults 0swaps
