 Entering Gaussian System, Link 0=g09
 Initial command:
 /soft/gaussian/g09.d01_itasca/g09/l1.exe "/scratch/jgoodpas/2033999.node1081.localdomain/Gau-2038.inp" -scrdir="/scratch/jgoodpas/2033999.node1081.localdomain/"
 Entering Link 1 = /soft/gaussian/g09.d01_itasca/g09/l1.exe PID=      2039.
  
 Copyright (c) 1988,1990,1992,1993,1995,1998,2003,2009,2013,
            Gaussian, Inc.  All Rights Reserved.
  
 This is part of the Gaussian(R) 09 program.  It is based on
 the Gaussian(R) 03 system (copyright 2003, Gaussian, Inc.),
 the Gaussian(R) 98 system (copyright 1998, Gaussian, Inc.),
 the Gaussian(R) 94 system (copyright 1995, Gaussian, Inc.),
 the Gaussian 92(TM) system (copyright 1992, Gaussian, Inc.),
 the Gaussian 90(TM) system (copyright 1990, Gaussian, Inc.),
 the Gaussian 88(TM) system (copyright 1988, Gaussian, Inc.),
 the Gaussian 86(TM) system (copyright 1986, Carnegie Mellon
 University), and the Gaussian 82(TM) system (copyright 1983,
 Carnegie Mellon University). Gaussian is a federally registered
 trademark of Gaussian, Inc.
  
 This software contains proprietary and confidential information,
 including trade secrets, belonging to Gaussian, Inc.
  
 This software is provided under written license and may be
 used, copied, transmitted, or stored only in accord with that
 written license.
  
 The following legend is applicable only to US Government
 contracts under FAR:
  
                    RESTRICTED RIGHTS LEGEND
  
 Use, reproduction and disclosure by the US Government is
 subject to restrictions as set forth in subparagraphs (a)
 and (c) of the Commercial Computer Software - Restricted
 Rights clause in FAR 52.227-19.
  
 Gaussian, Inc.
 340 Quinnipiac St., Bldg. 40, Wallingford CT 06492
  
  
 ---------------------------------------------------------------
 Warning -- This program may not be used in any manner that
 competes with the business of Gaussian, Inc. or will provide
 assistance to any competitor of Gaussian, Inc.  The licensee
 of this program is prohibited from giving any competitor of
 Gaussian, Inc. access to this program.  By using this program,
 the user acknowledges that Gaussian, Inc. is engaged in the
 business of creating and licensing software in the field of
 computational chemistry and represents and warrants to the
 licensee that it is not a competitor of Gaussian, Inc. and that
 it will not use this program in any manner prohibited above.
 ---------------------------------------------------------------
  

 Cite this work as:
 Gaussian 09, Revision D.01,
 M. J. Frisch, G. W. Trucks, H. B. Schlegel, G. E. Scuseria, 
 M. A. Robb, J. R. Cheeseman, G. Scalmani, V. Barone, B. Mennucci, 
 G. A. Petersson, H. Nakatsuji, M. Caricato, X. Li, H. P. Hratchian, 
 A. F. Izmaylov, J. Bloino, G. Zheng, J. L. Sonnenberg, M. Hada, 
 M. Ehara, K. Toyota, R. Fukuda, J. Hasegawa, M. Ishida, T. Nakajima, 
 Y. Honda, O. Kitao, H. Nakai, T. Vreven, J. A. Montgomery, Jr., 
 J. E. Peralta, F. Ogliaro, M. Bearpark, J. J. Heyd, E. Brothers, 
 K. N. Kudin, V. N. Staroverov, T. Keith, R. Kobayashi, J. Normand, 
 K. Raghavachari, A. Rendell, J. C. Burant, S. S. Iyengar, J. Tomasi, 
 M. Cossi, N. Rega, J. M. Millam, M. Klene, J. E. Knox, J. B. Cross, 
 V. Bakken, C. Adamo, J. Jaramillo, R. Gomperts, R. E. Stratmann, 
 O. Yazyev, A. J. Austin, R. Cammi, C. Pomelli, J. W. Ochterski, 
 R. L. Martin, K. Morokuma, V. G. Zakrzewski, G. A. Voth, 
 P. Salvador, J. J. Dannenberg, S. Dapprich, A. D. Daniels, 
 O. Farkas, J. B. Foresman, J. V. Ortiz, J. Cioslowski, 
 and D. J. Fox, Gaussian, Inc., Wallingford CT, 2013.
 
 ******************************************
 Gaussian 09:  ES64L-G09RevD.01 24-Apr-2013
                17-Oct-2017 
 ******************************************
 %LindaWorkers=ic-node0183
 %Mem=11800mb
 %NProcShared=8
 Will use up to    8 processors via shared memory.
 %chk=dimer.chk
 SetLPE:  input flags=" -workerwait 250000 -opt "Tsnet.Node.lindarsharg: ssh " "
 SetLPE:    new flags=" -workerwait 250000 -opt "Tsnet.Node.lindarsharg: ssh "  -nodelist 'ic-node0183'"
 Will use up to    1 processors via Linda.
 -------------------------------------------------------------
 # Opt=(Z-mat,maxcycle=200) m06/def2svp Integral=SuperFineGrid
 -------------------------------------------------------------
 1/6=200,10=7,14=-1,18=40,26=5,38=1/1,3;
 2/12=2,17=6,18=5,29=3,40=1/2;
 3/5=43,7=101,11=2,16=1,25=1,30=1,71=1,74=-54,75=-7/1,2,3;
 4//1;
 5/5=2,38=5/2;
 6/7=2,8=2,9=2,10=2,28=1/1;
 7/29=1/1,2,3,16;
 1/6=200,10=7,14=-1,18=40,26=5/3(2);
 2/29=3/2;
 99//99;
 2/29=3/2;
 3/5=43,7=101,11=2,16=1,25=1,30=1,71=1,74=-54,75=-7/1,2,3;
 4/5=5,16=3,69=1/1;
 5/5=2,38=5/2;
 7//1,2,3,16;
 1/6=200,14=-1,18=40,26=5/3(-5);
 2/29=3/2;
 6/7=2,8=2,9=2,10=2,19=2,28=1/1;
 99/9=1/99;
 ------
 C12H24
 ------
 Symbolic Z-matrix:
 Charge =  0 Multiplicity = 1
 C
 C                    1    B1
 H                    1    B2       2    A2
 H                    1    B3       2    A3       3    D3       0
 H                    1    B4       2    A4       3    D4       0
 C                    2    B5       1    A5       3    D5       0
 H                    2    B6       1    A6       3    D6       0
 H                    2    B7       1    A7       3    D7       0
 C                    6    B8       2    A8       1    D8       0
 H                    6    B9       2    A9       1    D9       0
 H                    6    B10      2    A10      1    D10      0
 C                    9    B11      6    A11      2    D11      0
 H                    9    B12      6    A12      2    D12      0
 H                    9    B13      6    A13      2    D13      0
 C                    12   B14      9    A14      6    D14      0
 H                    12   B15      9    A15      6    D15      0
 H                    12   B16      9    A16      6    D16      0
 C                    15   B17      12   A17      9    D17      0
 H                    15   B18      12   A18      9    D18      0
 H                    15   B19      12   A19      9    D19      0
 C                    18   B20      15   A20      12   D20      0
 H                    18   B21      15   A21      12   D21      0
 H                    18   B22      15   A22      12   D22      0
 C                    21   B23      18   A23      15   D23      0
 H                    21   B24      18   A24      15   D24      0
 H                    21   B25      18   A25      15   D25      0
 C                    24   B26      21   A26      18   D26      0
 H                    24   B27      21   A27      18   D27      0
 H                    24   B28      21   A28      18   D28      0
 C                    27   B29      24   A29      21   D29      0
 H                    27   B30      24   A30      21   D30      0
 H                    27   B31      24   A31      21   D31      0
 C                    30   B32      27   A32      24   D32      0
 H                    33   B33      30   A33      27   D33      0
 H                    33   B34      30   A34      27   D34      0
 H                    30   B35      27   A35      24   D35      0
       Variables:
  B1                    1.52037                  
  B2                    1.09449                  
  A2                  110.2615                   
  B3                    1.09469                  
  A3                  110.99941                  
  D3                  240.2622                   
  B4                    1.09468                  
  A4                  111.00291                  
  D4                  119.74267                  
  B5                    1.52846                  
  A5                  111.49348                  
  D5                  180.02355                  
  B6                    1.09622                  
  A6                  109.14402                  
  D6                   58.466                    
  B7                    1.09622                  
  A7                  109.14651                  
  D7                  301.57536                  
  B8                    1.52957                  
  A8                  111.33085                  
  D8                  180.06732                  
  B9                    1.09685                  
  A9                  109.56808                  
  D9                   58.69294                  
  B10                   1.09685                  
  A10                 109.56982                  
  D10                 301.43153                  
  B11                   1.52959                  
  A11                 111.32932                  
  D11                 180.0495                   
  B12                   1.09682                  
  A12                 109.56214                  
  D12                  58.69169                  
  B13                   1.09682                  
  A13                 109.57144                  
  D13                 301.40424                  
  B14                   1.52958                  
  A14                 111.33412                  
  D14                 180.11548                  
  B15                   1.09681                  
  A15                 109.56324                  
  D15                  58.75236                  
  B16                   1.09681                  
  A16                 109.56894                  
  D16                 301.4668                   
  B17                   1.52958                  
  A17                 111.32441                  
  D17                 180.06818                  
  B18                   1.09681                  
  A18                 109.56207                  
  D18                  58.71257                  
  B19                   1.09681                  
  A19                 109.57415                  
  D19                 301.42268                  
  B20                   1.5296                   
  A20                 111.33392                  
  D20                 180.12584                  
  B21                   1.09681                  
  A21                 109.56096                  
  D21                  58.76319                  
  B22                   1.09681                  
  A22                 109.57002                  
  D22                 301.47796                  
  B23                   1.53006                  
  A23                 111.33208                  
  D23                 180.06793                  
  B24                   1.09681                  
  A24                 109.55355                  
  D24                  58.71484                  
  B25                   1.09681                  
  A25                 109.57481                  
  D25                 301.41764                  
  B26                   1.52997                  
  A26                 111.27387                  
  D26                 180.07455                  
  B27                   1.09745                  
  A27                 109.45602                  
  D27                  58.51678                  
  B28                   1.09744                  
  A28                 109.4982                   
  D28                 301.54273                  
  B29                   1.50175                  
  A29                 111.29171                  
  D29                 180.59371                  
  B30                   1.0969                   
  A30                 109.65896                  
  D30                  57.82495                  
  B31                   1.09657                  
  A31                 109.82846                  
  D31                 300.6713                   
  B32                   1.33889                  
  A32                 124.10415                  
  D32                 241.95558                  
  B33                   1.08555                  
  A33                 121.75919                  
  B34                   1.08571                  
  A34                 120.7488                   
  B35                   1.08828                  
  A35                 116.90896                  
  D35                  62.58421                  
       Constants:
  D33                  30.                       
  D34                 210.                       
 

 GradGradGradGradGradGradGradGradGradGradGradGradGradGradGradGradGradGrad
 Berny optimization.
 Initialization pass.
                       ----------------------------
                       !    Initial Parameters    !
                       ! (Angstroms and Degrees)  !
 ----------------------                            ----------------------
 !      Name          Value   Derivative information (Atomic Units)     !
 ------------------------------------------------------------------------
 !       B1          1.5204   estimate D2E/DX2                          !
 !       B2          1.0945   estimate D2E/DX2                          !
 !       A2        110.2615   estimate D2E/DX2                          !
 !       B3          1.0947   estimate D2E/DX2                          !
 !       A3        110.9994   estimate D2E/DX2                          !
 !       D3        240.2622   estimate D2E/DX2                          !
 !       B4          1.0947   estimate D2E/DX2                          !
 !       A4        111.0029   estimate D2E/DX2                          !
 !       D4        119.7427   estimate D2E/DX2                          !
 !       B5          1.5285   estimate D2E/DX2                          !
 !       A5        111.4935   estimate D2E/DX2                          !
 !       D5        180.0236   estimate D2E/DX2                          !
 !       B6          1.0962   estimate D2E/DX2                          !
 !       A6        109.144    estimate D2E/DX2                          !
 !       D6         58.466    estimate D2E/DX2                          !
 !       B7          1.0962   estimate D2E/DX2                          !
 !       A7        109.1465   estimate D2E/DX2                          !
 !       D7        301.5754   estimate D2E/DX2                          !
 !       B8          1.5296   estimate D2E/DX2                          !
 !       A8        111.3308   estimate D2E/DX2                          !
 !       D8        180.0673   estimate D2E/DX2                          !
 !       B9          1.0969   estimate D2E/DX2                          !
 !       A9        109.5681   estimate D2E/DX2                          !
 !       D9         58.6929   estimate D2E/DX2                          !
 !       B10         1.0969   estimate D2E/DX2                          !
 !       A10       109.5698   estimate D2E/DX2                          !
 !       D10       301.4315   estimate D2E/DX2                          !
 !       B11         1.5296   estimate D2E/DX2                          !
 !       A11       111.3293   estimate D2E/DX2                          !
 !       D11       180.0495   estimate D2E/DX2                          !
 !       B12         1.0968   estimate D2E/DX2                          !
 !       A12       109.5621   estimate D2E/DX2                          !
 !       D12        58.6917   estimate D2E/DX2                          !
 !       B13         1.0968   estimate D2E/DX2                          !
 !       A13       109.5714   estimate D2E/DX2                          !
 !       D13       301.4042   estimate D2E/DX2                          !
 !       B14         1.5296   estimate D2E/DX2                          !
 !       A14       111.3341   estimate D2E/DX2                          !
 !       D14       180.1155   estimate D2E/DX2                          !
 !       B15         1.0968   estimate D2E/DX2                          !
 !       A15       109.5632   estimate D2E/DX2                          !
 !       D15        58.7524   estimate D2E/DX2                          !
 !       B16         1.0968   estimate D2E/DX2                          !
 !       A16       109.5689   estimate D2E/DX2                          !
 !       D16       301.4668   estimate D2E/DX2                          !
 !       B17         1.5296   estimate D2E/DX2                          !
 !       A17       111.3244   estimate D2E/DX2                          !
 !       D17       180.0682   estimate D2E/DX2                          !
 !       B18         1.0968   estimate D2E/DX2                          !
 !       A18       109.5621   estimate D2E/DX2                          !
 !       D18        58.7126   estimate D2E/DX2                          !
 !       B19         1.0968   estimate D2E/DX2                          !
 !       A19       109.5742   estimate D2E/DX2                          !
 !       D19       301.4227   estimate D2E/DX2                          !
 !       B20         1.5296   estimate D2E/DX2                          !
 !       A20       111.3339   estimate D2E/DX2                          !
 !       D20       180.1258   estimate D2E/DX2                          !
 !       B21         1.0968   estimate D2E/DX2                          !
 !       A21       109.561    estimate D2E/DX2                          !
 !       D21        58.7632   estimate D2E/DX2                          !
 !       B22         1.0968   estimate D2E/DX2                          !
 !       A22       109.57     estimate D2E/DX2                          !
 !       D22       301.478    estimate D2E/DX2                          !
 !       B23         1.5301   estimate D2E/DX2                          !
 !       A23       111.3321   estimate D2E/DX2                          !
 !       D23       180.0679   estimate D2E/DX2                          !
 !       B24         1.0968   estimate D2E/DX2                          !
 !       A24       109.5536   estimate D2E/DX2                          !
 !       D24        58.7148   estimate D2E/DX2                          !
 !       B25         1.0968   estimate D2E/DX2                          !
 !       A25       109.5748   estimate D2E/DX2                          !
 !       D25       301.4176   estimate D2E/DX2                          !
 !       B26         1.53     estimate D2E/DX2                          !
 !       A26       111.2739   estimate D2E/DX2                          !
 !       D26       180.0745   estimate D2E/DX2                          !
 !       B27         1.0975   estimate D2E/DX2                          !
 !       A27       109.456    estimate D2E/DX2                          !
 !       D27        58.5168   estimate D2E/DX2                          !
 !       B28         1.0974   estimate D2E/DX2                          !
 !       A28       109.4982   estimate D2E/DX2                          !
 !       D28       301.5427   estimate D2E/DX2                          !
 !       B29         1.5018   estimate D2E/DX2                          !
 !       A29       111.2917   estimate D2E/DX2                          !
 !       D29       180.5937   estimate D2E/DX2                          !
 !       B30         1.0969   estimate D2E/DX2                          !
 !       A30       109.659    estimate D2E/DX2                          !
 !       D30        57.8249   estimate D2E/DX2                          !
 !       B31         1.0966   estimate D2E/DX2                          !
 !       A31       109.8285   estimate D2E/DX2                          !
 !       D31       300.6713   estimate D2E/DX2                          !
 !       B32         1.3389   estimate D2E/DX2                          !
 !       A32       124.1042   estimate D2E/DX2                          !
 !       D32       241.9556   estimate D2E/DX2                          !
 !       B33         1.0856   estimate D2E/DX2                          !
 !       A33       121.7592   estimate D2E/DX2                          !
 !       B34         1.0857   estimate D2E/DX2                          !
 !       A34       120.7488   estimate D2E/DX2                          !
 !       B35         1.0883   estimate D2E/DX2                          !
 !       A35       116.909    estimate D2E/DX2                          !
 !       D35        62.5842   estimate D2E/DX2                          !
 !       D33        30.0      Frozen                                    !
 !       D34       210.0      Frozen                                    !
 ------------------------------------------------------------------------
 Trust Radius=3.00D-01 FncErr=1.00D-07 GrdErr=1.00D-07
 Number of steps in this run=    200 maximum allowed number of steps=    204.
 GradGradGradGradGradGradGradGradGradGradGradGradGradGradGradGradGradGrad

 ---------------------------------------------------------------------------------------------------
                            Z-MATRIX (ANGSTROMS AND DEGREES)
   CD    Cent   Atom    N1       Length/X        N2       Alpha/Y        N3        Beta/Z          J
 ---------------------------------------------------------------------------------------------------
      1      1  C 
      2      2  C        1   1.520370(     1)
      3      3  H        1   1.094490(     2)      2  110.262(    36)
      4      4  H        1   1.094690(     3)      2  110.999(    37)      3  240.262(    70)      0
      5      5  H        1   1.094680(     4)      2  111.003(    38)      3  119.743(    71)      0
      6      6  C        2   1.528460(     5)      1  111.493(    39)      3  180.024(    72)      0
      7      7  H        2   1.096220(     6)      1  109.144(    40)      3   58.466(    73)      0
      8      8  H        2   1.096220(     7)      1  109.147(    41)      3  301.575(    74)      0
      9      9  C        6   1.529570(     8)      2  111.331(    42)      1  180.067(    75)      0
     10     10  H        6   1.096850(     9)      2  109.568(    43)      1   58.693(    76)      0
     11     11  H        6   1.096850(    10)      2  109.570(    44)      1  301.432(    77)      0
     12     12  C        9   1.529590(    11)      6  111.329(    45)      2  180.050(    78)      0
     13     13  H        9   1.096820(    12)      6  109.562(    46)      2   58.692(    79)      0
     14     14  H        9   1.096820(    13)      6  109.571(    47)      2  301.404(    80)      0
     15     15  C       12   1.529580(    14)      9  111.334(    48)      6  180.115(    81)      0
     16     16  H       12   1.096810(    15)      9  109.563(    49)      6   58.752(    82)      0
     17     17  H       12   1.096810(    16)      9  109.569(    50)      6  301.467(    83)      0
     18     18  C       15   1.529580(    17)     12  111.324(    51)      9  180.068(    84)      0
     19     19  H       15   1.096810(    18)     12  109.562(    52)      9   58.713(    85)      0
     20     20  H       15   1.096810(    19)     12  109.574(    53)      9  301.423(    86)      0
     21     21  C       18   1.529600(    20)     15  111.334(    54)     12  180.126(    87)      0
     22     22  H       18   1.096810(    21)     15  109.561(    55)     12   58.763(    88)      0
     23     23  H       18   1.096810(    22)     15  109.570(    56)     12  301.478(    89)      0
     24     24  C       21   1.530060(    23)     18  111.332(    57)     15  180.068(    90)      0
     25     25  H       21   1.096810(    24)     18  109.554(    58)     15   58.715(    91)      0
     26     26  H       21   1.096810(    25)     18  109.575(    59)     15  301.418(    92)      0
     27     27  C       24   1.529970(    26)     21  111.274(    60)     18  180.075(    93)      0
     28     28  H       24   1.097450(    27)     21  109.456(    61)     18   58.517(    94)      0
     29     29  H       24   1.097440(    28)     21  109.498(    62)     18  301.543(    95)      0
     30     30  C       27   1.501750(    29)     24  111.292(    63)     21  180.594(    96)      0
     31     31  H       27   1.096900(    30)     24  109.659(    64)     21   57.825(    97)      0
     32     32  H       27   1.096570(    31)     24  109.828(    65)     21  300.671(    98)      0
     33     33  C       30   1.338890(    32)     27  124.104(    66)     24  241.956(    99)      0
     34     34  H       33   1.085550(    33)     30  121.759(    67)     27   30.000(   100)      0
     35     35  H       33   1.085710(    34)     30  120.749(    68)     27  210.000(   101)      0
     36     36  H       30   1.088280(    35)     27  116.909(    69)     24   62.584(   102)      0
 ---------------------------------------------------------------------------------------------------
                         Z-Matrix orientation:                         
 ---------------------------------------------------------------------
 Center     Atomic      Atomic             Coordinates (Angstroms)
 Number     Number       Type             X           Y           Z
 ---------------------------------------------------------------------
      1          6           0        0.000000    0.000000    0.000000
      2          6           0        0.000000    0.000000    1.520370
      3          1           0        1.026765    0.000000   -0.379028
      4          1           0       -0.506937    0.887394   -0.392291
      5          1           0       -0.506996   -0.887322   -0.392350
      6          6           0       -1.422170   -0.000585    2.080391
      7          1           0        0.541621    0.882669    1.879869
      8          1           0        0.542250   -0.882265    1.879914
      9          6           0       -1.417829    0.001091    3.609954
     10          1           0       -1.960390   -0.883823    1.715305
     11          1           0       -1.961845    0.881033    1.713538
     12          6           0       -2.841064   -0.000725    4.170352
     13          1           0       -0.880476    0.884957    3.974709
     14          1           0       -0.877544   -0.880117    3.976802
     15          6           0       -2.836857    0.003823    5.699919
     16          1           0       -3.377699   -0.885606    3.807035
     17          1           0       -3.382035    0.879433    3.802024
     18          6           0       -4.260172    0.000310    6.260077
     19          1           0       -2.301279    0.889417    6.063059
     20          1           0       -2.294922   -0.875633    6.068507
     21          6           0       -4.256232    0.007986    7.789653
     22          1           0       -4.794941   -0.886396    5.898461
     23          1           0       -4.802856    0.878620    5.889863
     24          6           0       -5.680003    0.002782    8.349950
     25          1           0       -3.722490    0.895453    8.150919
     26          1           0       -3.712685   -0.869677    8.160135
     27          6           0       -5.674519    0.012323    9.879880
     28          1           0       -6.213070   -0.884521    7.985355
     29          1           0       -6.223979    0.879534    7.976089
     30          6           0       -7.071612   -0.007278   10.430335
     31          1           0       -5.128482    0.892261   10.241464
     32          1           0       -5.141577   -0.869376   10.255440
     33          6           0       -7.595135    0.967368   11.184400
     34          1           0       -7.284919    2.002080   11.076905
     35          1           0       -8.351640    0.745924   11.931012
     36          1           0       -7.679357   -0.880293   10.200458
 ---------------------------------------------------------------------
                    Distance matrix (angstroms):
                    1          2          3          4          5
     1  C    0.000000
     2  C    1.520370   0.000000
     3  H    1.094490   2.159157   0.000000
     4  H    1.094690   2.168577   1.771972   0.000000
     5  H    1.094680   2.168613   1.771988   1.774717   0.000000
     6  C    2.520038   1.528460   3.470738   2.782142   2.781779
     7  H    2.146244   1.096220   2.473274   2.502440   3.065199
     8  H    2.146276   1.096220   2.473047   3.065192   2.502823
     9  C    3.878402   2.525193   4.678463   4.199193   4.199682
    10  H    2.750735   2.159230   3.753727   3.113149   2.560191
    11  H    2.749776   2.159252   3.753244   2.559554   3.111018
    12  C    5.046135   3.885106   5.971344   5.201405   5.201170
    13  H    4.166137   2.753574   4.834847   4.382948   4.727755
    14  H    4.166491   2.752953   4.834693   4.727624   4.384843
    15  C    6.366856   5.051376   7.202859   6.582116   6.583171
    16  H    5.165913   4.173965   6.140580   5.386942   5.086823
    17  H    5.164005   4.173428   6.139390   5.085128   5.383311
    18  C    7.572162   6.372903   8.487015   7.689454   7.689539
    19  H    6.545810   5.169427   7.305301   6.700091   6.931707
    20  H    6.546768   5.169037   7.305548   6.931599   6.703692
    21  C    8.876613   7.577564   9.728179   9.042941   9.044530
    22  H    7.653038   6.553231   8.607254   7.817088   7.613197
    23  H    7.650482   6.552241   8.605547   7.610549   7.812756
    24  C   10.098718   8.882882  11.007988  10.196564  10.197063
    25  H    9.005346   7.656563   9.803941   9.128324   9.300814
    26  H    9.007118   7.656817   9.804898   9.300974   9.133551
    27  C   11.393522  10.103550  12.253675  11.532006  11.533922
    28  H   10.156304   9.010030  11.097769  10.290024  10.136332
    29  H   10.155269   9.010427  11.097515  10.134812  10.287684
    30  C   12.601572  11.375202  13.506520  12.689548  12.688545
    31  H   11.488475  10.156522  12.307642  11.594631  11.730433
    32  H   11.505028  10.173154  12.324616  11.744799  11.612713
    33  C   13.554065  12.329451  14.456342  13.574562  13.700465
    34  H   13.408064  12.182189  14.294433  13.368845  13.632047
    35  H   14.582707  13.367414  15.493481  14.609010  14.699360
    36  H   12.798312  11.622882  13.729421  12.914127  12.792592
                    6          7          8          9         10
     6  C    0.000000
     7  H    2.162596   0.000000
     8  H    2.162521   1.764935   0.000000
     9  C    1.529570   2.758590   2.759577   0.000000
    10  H    1.096850   3.067188   2.508049   2.160357   0.000000
    11  H    1.096850   2.508986   3.067147   2.160241   1.764858
    12  C    2.526103   4.179624   4.179717   1.529590   2.753671
    13  H    2.160106   2.531941   3.087943   1.096820   3.065894
    14  H    2.160225   3.085219   2.532343   1.096820   2.507378
    15  C    3.886174   5.174869   5.176481   2.526184   4.175316
    16  H    2.754752   4.711883   4.368044   2.160130   2.526678
    17  H    2.753093   4.369184   4.711486   2.160203   3.079698
    18  C    5.052132   6.559116   6.559576   3.886138   5.169685
    19  H    4.174516   5.057787   5.359405   2.754511   4.707818
    20  H    4.175222   5.355585   5.059042   2.753620   4.366045
    21  C    6.373983   7.662246   7.664398   5.052372   6.554687
    22  H    5.170871   6.910685   6.680894   4.174899   5.053066
    23  H    5.168570   6.681580   6.910178   4.174500   5.349089
    24  C    7.578689   9.019133   9.020039   6.374456   7.657682
    25  H    6.553295   7.583462   7.789339   5.170272   6.905647
    26  H    6.554775   7.785345   7.585896   5.169986   6.678816
    27  C    8.883393  10.168485  10.170937   7.578358   9.014328
    28  H    7.655238   9.275008   9.105535   6.551548   7.576200
    29  H    7.654491   9.106989   9.276268   6.552394   7.777212
    30  C   10.081558  11.483196  11.482430   8.859059  10.141236
    31  H    9.007611  10.102794  10.257762   7.651148   9.267507
    32  H    9.023315  10.272224  10.122030   7.667235   9.113400
    33  C   11.041984  12.360756  12.498466   9.821662  11.173228
    34  H   10.923359  12.128202  12.416468   9.704744  11.149825
    35  H   12.066879  13.421411  13.519499  10.856911  12.159968
    36  H   10.288916  11.828979  11.697277   9.133363  10.232518
                   11         12         13         14         15
    11  H    0.000000
    12  C    2.754352   0.000000
    13  H    2.506446   2.160234   0.000000
    14  H    3.065897   2.160139   1.765078   0.000000
    15  C    4.174491   1.529580   2.753212   2.754885   0.000000
    16  H    3.083567   1.096810   3.065801   2.505919   2.160233
    17  H    2.525611   1.096810   2.507518   3.065785   2.160074
    18  C    5.170010   2.526029   4.174668   4.175006   1.529580
    19  H    4.362754   2.160107   2.525848   3.083949   1.096810
    20  H    4.707714   2.160261   3.079663   2.526699   1.096810
    21  C    6.553289   3.886145   5.169004   5.171276   2.526189
    22  H    5.353860   2.754707   4.707605   4.363349   2.160092
    23  H    5.051043   2.752925   4.364965   4.707550   2.160208
    24  C    7.657544   5.052586   6.554115   6.554963   3.886662
    25  H    6.673826   4.174322   5.051523   5.354402   2.754406
    26  H    6.905725   4.175306   5.349574   5.053554   2.753678
    27  C    9.012644   6.373959   7.656068   7.658573   5.052175
    28  H    7.779832   5.167763   6.903107   6.673556   4.172671
    29  H    7.575310   5.167456   6.675634   6.904711   4.173777
    30  C   10.143045   7.555459   8.988957   8.987569   6.349024
    31  H    9.096881   6.548902   7.570854   7.775461   5.163962
    32  H    9.281094   6.563171   7.789881   7.589689   5.179477
    33  C   11.019920   8.528498   9.852567  10.024405   7.324559
    34  H   10.828874   8.453375   9.628397   9.988642   7.258806
    35  H   12.051743   9.547344  10.915144  11.035197   8.354045
    36  H   10.383642   7.781061   9.386205   9.219466   6.669807
                   16         17         18         19         20
    16  H    0.000000
    17  H    1.765051   0.000000
    18  C    2.753366   2.754271   0.000000
    19  H    3.065784   2.506075   2.160229   0.000000
    20  H    2.507341   3.065781   2.160135   1.765070   0.000000
    21  C    4.175114   4.174306   1.529600   2.753160   2.754971
    22  H    2.526388   3.083748   1.096810   3.065771   2.505818
    23  H    3.079243   2.525432   1.096810   2.507588   3.065787
    24  C    5.169905   5.170378   2.526558   4.175137   4.175568
    25  H    4.707482   4.362231   2.160015   2.525676   3.084013
    26  H    4.366000   4.707638   2.160287   3.079644   2.526855
    27  C    6.554472   6.553449   3.886321   5.168768   5.170755
    28  H    5.049524   5.350379   2.751966   4.705761   4.361911
    29  H    5.347714   5.049700   2.752139   4.364327   4.707119
    30  C    7.634432   7.637653   5.029443   6.529413   6.526588
    31  H    6.901300   6.672079   4.171449   5.045013   5.344912
    32  H    6.685317   6.913819   4.182840   5.360662   5.062992
    33  C    8.697460   8.500437   6.025457   7.366079   7.593502
    34  H    8.743919   8.331671   6.029760   7.156349   7.633174
    35  H    9.664419   9.528654   7.032464   8.429729   8.583836
    36  H    7.705852   7.905921   5.290831   7.012394   6.787134
                   21         22         23         24         25
    21  C    0.000000
    22  H    2.160262   0.000000
    23  H    2.160093   1.765055   0.000000
    24  C    1.530060   2.753865   2.754724   0.000000
    25  H    1.096810   3.065731   2.505963   2.160632   0.000000
    26  H    1.096810   2.507335   3.065803   2.160452   1.765182
    27  C    2.525986   4.175291   4.174985   1.529970   2.753114
    28  H    2.159649   2.523137   3.080334   1.097450   3.065731
    29  H    2.160181   3.078506   2.524268   1.097440   2.507641
    30  C    3.860025   5.147228   5.152471   2.502934   4.150575
    31  H    2.748480   4.704950   4.363789   2.161753   2.519365
    32  H    2.762916   4.370779   4.714709   2.163667   3.091510
    33  C    4.857262   6.262482   5.986387   3.554190   4.919812
    34  H    4.894424   6.431141   5.859028   3.742891   4.740982
    35  H    5.870926   7.190706   7.007636   4.529229   5.978335
    36  H    4.280048   5.179486   5.472593   2.863847   4.796945
                   26         27         28         29         30
    26  H    0.000000
    27  C    2.753949   0.000000
    28  H    2.506530   2.164161   0.000000
    29  H    3.065976   2.162957   1.764112   0.000000
    30  C    4.144867   1.501750   2.735795   2.743764   0.000000
    31  H    3.072595   1.096900   3.069742   2.516387   2.149557
    32  H    2.536145   1.096570   2.510302   3.070134   2.121046
    33  C    5.253030   2.510508   3.946326   3.490136   1.338890
    34  H    5.432806   2.825843   4.363371   3.464212   2.121573
    35  H    6.192704   3.451419   4.774939   4.492907   2.111355
    36  H    4.460663   2.217862   2.656445   3.187936   1.088280
                   31         32         33         34         35
    31  H    0.000000
    32  H    1.761741   0.000000
    33  C    2.641807   3.202584   0.000000
    34  H    2.565127   3.676136   1.085550   0.000000
    35  H    3.642078   3.965002   1.085710   1.856157   0.000000
    36  H    3.106541   2.538400   2.095015   3.038391   2.468069
                   36
    36  H    0.000000
 Stoichiometry    C12H24
 Framework group  C1[X(C12H24)]
 Deg. of freedom   102
 Full point group                 C1      NOp   1
 Largest Abelian subgroup         C1      NOp   1
 Largest concise Abelian subgroup C1      NOp   1
                         Standard orientation:                         
 ---------------------------------------------------------------------
 Center     Atomic      Atomic             Coordinates (Angstroms)
 Number     Number       Type             X           Y           Z
 ---------------------------------------------------------------------
      1          6           0       -6.772815   -0.426058    0.076630
      2          6           0       -5.523449    0.438994    0.124531
      3          1           0       -7.668598    0.196680    0.164256
      4          1           0       -6.780559   -1.149822    0.897880
      5          1           0       -6.832836   -0.976660   -0.867595
      6          6           0       -4.253934   -0.403571    0.003683
      7          1           0       -5.510266    0.999631    1.066449
      8          1           0       -5.562562    1.172459   -0.689224
      9          6           0       -2.999434    0.470092    0.053962
     10          1           0       -4.273660   -0.964555   -0.938648
     11          1           0       -4.222312   -1.139029    0.816813
     12          6           0       -1.729039   -0.373007   -0.068203
     13          1           0       -2.979467    1.030119    0.996822
     14          1           0       -3.031394    1.206006   -0.758702
     15          6           0       -0.474374    0.500269   -0.015080
     16          1           0       -1.748262   -0.931530   -1.011958
     17          1           0       -1.697935   -1.110220    0.743303
     18          6           0        0.795820   -0.342867   -0.138948
     19          1           0       -0.454674    1.057758    0.929277
     20          1           0       -0.505793    1.238348   -0.825786
     21          6           0        2.050734    0.529891   -0.082738
     22          1           0        0.776878   -0.898720   -1.084284
     23          1           0        0.826294   -1.082371    0.670495
     24          6           0        3.321252   -0.313374   -0.208328
     25          1           0        2.069996    1.084632    0.863244
     26          1           0        2.020009    1.270189   -0.891445
     27          6           0        4.575635    0.560665   -0.150102
     28          1           0        3.298877   -0.869474   -1.154187
     29          1           0        3.349419   -1.055855    0.599324
     30          6           0        5.822459   -0.265010   -0.287738
     31          1           0        4.587939    1.126361    0.789592
     32          1           0        4.554997    1.295587   -0.963693
     33          6           0        6.768744   -0.358586    0.654819
     34          1           0        6.534341   -0.267450    1.710834
     35          1           0        7.806268   -0.529883    0.384692
     36          1           0        5.953707   -0.806832   -1.222381
 ---------------------------------------------------------------------
 Rotational constants (GHZ):      6.3954403      0.1581329      0.1570166
 Standard basis: def2SVP (5D, 7F)
 There are   300 symmetry adapted cartesian basis functions of A   symmetry.
 There are   288 symmetry adapted basis functions of A   symmetry.
   288 basis functions,   468 primitive gaussians,   300 cartesian basis functions
    48 alpha electrons       48 beta electrons
       nuclear repulsion energy       654.7569266972 Hartrees.
 NAtoms=   36 NActive=   36 NUniq=   36 SFac= 1.00D+00 NAtFMM=   60 NAOKFM=F Big=F
 Integral buffers will be    131072 words long.
 Raffenetti 2 integral format.
 Two-electron integral symmetry is turned on.
 One-electron integrals computed using PRISM.
   1 Symmetry operations used in ECPInt.
 ECPInt:  NShTT=   10440 NPrTT=   35208 LenC2=    8763 LenP2D=   21887.
 LDataN:  DoStor=T MaxTD1= 4 Len=   56
 NBasis=   288 RedAO= T EigKep=  7.64D-04  NBF=   288
 NBsUse=   288 1.00D-06 EigRej= -1.00D+00 NBFU=   288
 ExpMin= 1.22D-01 ExpMax= 1.24D+03 ExpMxC= 1.86D+02 IAcc=3 IRadAn=         7 AccDes= 0.00D+00
 Harris functional with IExCor= 1009 and IRadAn=       7 diagonalized for initial guess.
 HarFok:  IExCor= 1009 AccDes= 0.00D+00 IRadAn=         7 IDoV= 1 UseB2=F ITyADJ=14
 ICtDFT=  3500011 ScaDFX=  1.000000  1.000000  1.000000  1.000000
 FoFCou: FMM=F IPFlag=           0 FMFlag=      100000 FMFlg1=           0
         NFxFlg=           0 DoJE=T BraDBF=F KetDBF=T FulRan=T
         wScrn=  0.000000 ICntrl=     500 IOpCl=  0 I1Cent=   200000004 NGrid=           0
         NMat0=    1 NMatS0=      1 NMatT0=    0 NMatD0=    1 NMtDS0=    0 NMtDT0=    0
 Petite list used in FoFCou.
 Keep R1 ints in memory in canonical form, NReq=879895090.
 Requested convergence on RMS density matrix=1.00D-08 within 128 cycles.
 Requested convergence on MAX density matrix=1.00D-06.
 Requested convergence on             energy=1.00D-06.
 No special actions if energy rises.
 Integral accuracy reduced to 1.0D-05 until final iterations.
 Initial convergence to 1.0D-05 achieved.  Increase integral accuracy.
 SCF Done:  E(RM06) =  -470.956908832     A.U. after   13 cycles
            NFock= 13  Conv=0.26D-08     -V/T= 2.0126

 **********************************************************************

            Population analysis using the SCF density.

 **********************************************************************

 Orbital symmetries:
       Occupied  (A) (A) (A) (A) (A) (A) (A) (A) (A) (A) (A) (A)
                 (A) (A) (A) (A) (A) (A) (A) (A) (A) (A) (A) (A)
                 (A) (A) (A) (A) (A) (A) (A) (A) (A) (A) (A) (A)
                 (A) (A) (A) (A) (A) (A) (A) (A) (A) (A) (A) (A)
       Virtual   (A) (A) (A) (A) (A) (A) (A) (A) (A) (A) (A) (A)
                 (A) (A) (A) (A) (A) (A) (A) (A) (A) (A) (A) (A)
                 (A) (A) (A) (A) (A) (A) (A) (A) (A) (A) (A) (A)
                 (A) (A) (A) (A) (A) (A) (A) (A) (A) (A) (A) (A)
                 (A) (A) (A) (A) (A) (A) (A) (A) (A) (A) (A) (A)
                 (A) (A) (A) (A) (A) (A) (A) (A) (A) (A) (A) (A)
                 (A) (A) (A) (A) (A) (A) (A) (A) (A) (A) (A) (A)
                 (A) (A) (A) (A) (A) (A) (A) (A) (A) (A) (A) (A)
                 (A) (A) (A) (A) (A) (A) (A) (A) (A) (A) (A) (A)
                 (A) (A) (A) (A) (A) (A) (A) (A) (A) (A) (A) (A)
                 (A) (A) (A) (A) (A) (A) (A) (A) (A) (A) (A) (A)
                 (A) (A) (A) (A) (A) (A) (A) (A) (A) (A) (A) (A)
                 (A) (A) (A) (A) (A) (A) (A) (A) (A) (A) (A) (A)
                 (A) (A) (A) (A) (A) (A) (A) (A) (A) (A) (A) (A)
                 (A) (A) (A) (A) (A) (A) (A) (A) (A) (A) (A) (A)
                 (A) (A) (A) (A) (A) (A) (A) (A) (A) (A) (A) (A)
                 (A) (A) (A) (A) (A) (A) (A) (A) (A) (A) (A) (A)
                 (A) (A) (A) (A) (A) (A) (A) (A) (A) (A) (A) (A)
                 (A) (A) (A) (A) (A) (A) (A) (A) (A) (A) (A) (A)
                 (A) (A) (A) (A) (A) (A) (A) (A) (A) (A) (A) (A)
 The electronic state is 1-A.
 Alpha  occ. eigenvalues --  -10.24871 -10.24503 -10.24063 -10.23859 -10.23756
 Alpha  occ. eigenvalues --  -10.23736 -10.23696 -10.23657 -10.23633 -10.23627
 Alpha  occ. eigenvalues --  -10.23613 -10.23197  -0.82181  -0.81024  -0.79018
 Alpha  occ. eigenvalues --   -0.76302  -0.73021  -0.69207  -0.64904  -0.60617
 Alpha  occ. eigenvalues --   -0.58402  -0.57674  -0.57488  -0.55261  -0.49724
 Alpha  occ. eigenvalues --   -0.48570  -0.47008  -0.45375  -0.44587  -0.43727
 Alpha  occ. eigenvalues --   -0.43323  -0.42140  -0.40756  -0.40416  -0.38957
 Alpha  occ. eigenvalues --   -0.38113  -0.36892  -0.36236  -0.35109  -0.34894
 Alpha  occ. eigenvalues --   -0.34325  -0.33986  -0.33583  -0.33359  -0.33040
 Alpha  occ. eigenvalues --   -0.32914  -0.30528  -0.24636
 Alpha virt. eigenvalues --    0.00376   0.06307   0.07011   0.07972   0.08134
 Alpha virt. eigenvalues --    0.08751   0.09239   0.09672   0.10247   0.11100
 Alpha virt. eigenvalues --    0.11422   0.12768   0.13503   0.13733   0.14921
 Alpha virt. eigenvalues --    0.15510   0.15996   0.16148   0.16248   0.16928
 Alpha virt. eigenvalues --    0.17158   0.18156   0.18488   0.19562   0.19785
 Alpha virt. eigenvalues --    0.20522   0.20793   0.22685   0.23193   0.23752
 Alpha virt. eigenvalues --    0.25777   0.26559   0.28248   0.32314   0.32745
 Alpha virt. eigenvalues --    0.35319   0.38392   0.40770   0.41521   0.41848
 Alpha virt. eigenvalues --    0.42564   0.43089   0.43584   0.43832   0.44834
 Alpha virt. eigenvalues --    0.44993   0.48072   0.48337   0.49336   0.50538
 Alpha virt. eigenvalues --    0.52327   0.52421   0.53723   0.54675   0.58577
 Alpha virt. eigenvalues --    0.59016   0.61127   0.61511   0.61965   0.62144
 Alpha virt. eigenvalues --    0.62416   0.62571   0.62864   0.63066   0.63516
 Alpha virt. eigenvalues --    0.63796   0.64498   0.64648   0.65023   0.65774
 Alpha virt. eigenvalues --    0.66049   0.66243   0.66385   0.66784   0.67205
 Alpha virt. eigenvalues --    0.67293   0.67561   0.68609   0.68727   0.69056
 Alpha virt. eigenvalues --    0.69674   0.69878   0.70681   0.70872   0.70995
 Alpha virt. eigenvalues --    0.71662   0.71732   0.72049   0.72975   0.73396
 Alpha virt. eigenvalues --    0.77166   0.82061   0.82665   0.86161   0.89039
 Alpha virt. eigenvalues --    0.93560   0.95858   0.98406   0.98974   1.00486
 Alpha virt. eigenvalues --    1.01678   1.01931   1.02475   1.03006   1.04165
 Alpha virt. eigenvalues --    1.05570   1.08021   1.09474   1.17560   1.19368
 Alpha virt. eigenvalues --    1.21644   1.23510   1.26928   1.31078   1.31601
 Alpha virt. eigenvalues --    1.32915   1.33346   1.34588   1.35099   1.35927
 Alpha virt. eigenvalues --    1.37095   1.37573   1.37887   1.38287   1.42282
 Alpha virt. eigenvalues --    1.50471   1.52656   1.57197   1.59600   1.62889
 Alpha virt. eigenvalues --    1.63801   1.65535   1.66374   1.66605   1.71012
 Alpha virt. eigenvalues --    1.71495   1.72417   1.73596   1.74049   1.74225
 Alpha virt. eigenvalues --    1.74736   1.76034   1.76620   1.76917   1.78147
 Alpha virt. eigenvalues --    1.78210   1.78402   1.79150   1.80007   1.80283
 Alpha virt. eigenvalues --    1.80414   1.80579   1.81705   1.82144   1.82460
 Alpha virt. eigenvalues --    1.82875   1.84029   1.84602   1.84789   1.85737
 Alpha virt. eigenvalues --    1.86926   1.88150   1.89490   1.90639   1.91431
 Alpha virt. eigenvalues --    1.91659   1.92273   1.92544   1.93761   1.94717
 Alpha virt. eigenvalues --    1.96483   1.98585   2.00203   2.00926   2.03380
 Alpha virt. eigenvalues --    2.05849   2.06610   2.09577   2.10710   2.11602
 Alpha virt. eigenvalues --    2.14469   2.17156   2.18564   2.21341   2.24161
 Alpha virt. eigenvalues --    2.26532   2.29211   2.31343   2.34027   2.37121
 Alpha virt. eigenvalues --    2.38746   2.40232   2.41419   2.41640   2.42041
 Alpha virt. eigenvalues --    2.42594   2.43272   2.44803   2.45337   2.46833
 Alpha virt. eigenvalues --    2.50112   2.50299   2.51365   2.52129   2.56176
 Alpha virt. eigenvalues --    2.56366   2.57505   2.57709   2.59411   2.59771
 Alpha virt. eigenvalues --    2.60430   2.61706   2.62745   2.65363   2.71163
 Alpha virt. eigenvalues --    2.72665   2.75251   2.78446   2.80146   2.81635
 Alpha virt. eigenvalues --    2.82471   2.84104   2.85526   2.85949   2.89228
 Alpha virt. eigenvalues --    2.90026   2.91678   2.92476   2.93749   2.95594
 Alpha virt. eigenvalues --    2.96838   2.97772   2.99558   3.00017   3.01349
 Alpha virt. eigenvalues --    3.03671   3.04664   3.05453   3.07475   3.17769
          Condensed to atoms (all electrons):
               1          2          3          4          5          6
     1  C    4.571416   0.421767   0.377954   0.394065   0.394026  -0.058832
     2  C    0.421767   4.674077  -0.014016  -0.023345  -0.023340   0.398566
     3  H    0.377954  -0.014016   0.656507  -0.024839  -0.024842   0.008284
     4  H    0.394065  -0.023345  -0.024839   0.653225  -0.027914  -0.008667
     5  H    0.394026  -0.023340  -0.024842  -0.027914   0.653310  -0.008666
     6  C   -0.058832   0.398566   0.008284  -0.008667  -0.008666   4.752134
     7  H   -0.023839   0.375239  -0.006693  -0.010179   0.008805  -0.022823
     8  H   -0.023807   0.375170  -0.006705   0.008804  -0.010167  -0.022762
     9  C    0.009389  -0.046176  -0.000555   0.000467   0.000469   0.364234
    10  H   -0.004397  -0.027305  -0.000047  -0.001941   0.007553   0.374669
    11  H   -0.004379  -0.027366  -0.000044   0.007556  -0.001947   0.374798
    12  C   -0.000510   0.008366   0.000016  -0.000008  -0.000008  -0.043096
    13  H    0.000294  -0.006642   0.000008  -0.000053   0.000024  -0.022350
    14  H    0.000299  -0.006630   0.000008   0.000024  -0.000053  -0.022324
    15  C    0.000009  -0.000440   0.000000   0.000000   0.000000   0.008160
    16  H    0.000007   0.000318   0.000000   0.000004  -0.000010  -0.007046
    17  H    0.000007   0.000326   0.000000  -0.000010   0.000004  -0.007026
    18  C    0.000000   0.000008   0.000000   0.000000   0.000000  -0.000458
    19  H    0.000000   0.000003   0.000000   0.000000   0.000000   0.000376
    20  H    0.000000   0.000003   0.000000   0.000000   0.000000   0.000385
    21  C    0.000000   0.000000   0.000000   0.000000   0.000000   0.000008
    22  H    0.000000   0.000000   0.000000   0.000000   0.000000   0.000003
    23  H    0.000000   0.000000   0.000000   0.000000   0.000000   0.000004
    24  C    0.000000   0.000000   0.000000   0.000000   0.000000   0.000000
    25  H    0.000000   0.000000   0.000000   0.000000   0.000000   0.000000
    26  H    0.000000   0.000000   0.000000   0.000000   0.000000   0.000000
    27  C    0.000000   0.000000   0.000000   0.000000   0.000000   0.000000
    28  H    0.000000   0.000000   0.000000   0.000000   0.000000   0.000000
    29  H    0.000000   0.000000   0.000000   0.000000   0.000000   0.000000
    30  C    0.000000   0.000000   0.000000   0.000000   0.000000   0.000000
    31  H    0.000000   0.000000   0.000000   0.000000   0.000000   0.000000
    32  H    0.000000   0.000000   0.000000   0.000000   0.000000   0.000000
    33  C    0.000000   0.000000   0.000000   0.000000   0.000000   0.000000
    34  H    0.000000   0.000000   0.000000   0.000000   0.000000   0.000000
    35  H    0.000000   0.000000   0.000000   0.000000   0.000000   0.000000
    36  H    0.000000   0.000000   0.000000   0.000000   0.000000   0.000000
               7          8          9         10         11         12
     1  C   -0.023839  -0.023807   0.009389  -0.004397  -0.004379  -0.000510
     2  C    0.375239   0.375170  -0.046176  -0.027305  -0.027366   0.008366
     3  H   -0.006693  -0.006705  -0.000555  -0.000047  -0.000044   0.000016
     4  H   -0.010179   0.008804   0.000467  -0.001941   0.007556  -0.000008
     5  H    0.008805  -0.010167   0.000469   0.007553  -0.001947  -0.000008
     6  C   -0.022823  -0.022762   0.364234   0.374669   0.374798  -0.043096
     7  H    0.691058  -0.034884  -0.007350   0.009506  -0.011839   0.000362
     8  H   -0.034884   0.691116  -0.007365  -0.011879   0.009505   0.000357
     9  C   -0.007350  -0.007365   4.750030  -0.020955  -0.020971   0.364023
    10  H    0.009506  -0.011879  -0.020955   0.696357  -0.037165  -0.007310
    11  H   -0.011839   0.009505  -0.020971  -0.037165   0.696201  -0.007329
    12  C    0.000362   0.000357   0.364023  -0.007310  -0.007329   4.748021
    13  H    0.007904  -0.002031   0.372261   0.009445  -0.011955  -0.021273
    14  H   -0.002039   0.007902   0.372146  -0.011930   0.009445  -0.021189
    15  C    0.000004   0.000004  -0.044163   0.000436   0.000430   0.366394
    16  H    0.000015  -0.000040  -0.021643   0.007736  -0.002009   0.371732
    17  H   -0.000040   0.000015  -0.021715  -0.002021   0.007744   0.371905
    18  C    0.000000   0.000000   0.008376   0.000001   0.000001  -0.045205
    19  H   -0.000013   0.000005  -0.007118   0.000014  -0.000040  -0.021319
    20  H    0.000005  -0.000012  -0.007113  -0.000040   0.000014  -0.021266
    21  C    0.000000   0.000000  -0.000460   0.000000   0.000000   0.008375
    22  H    0.000000   0.000000   0.000391  -0.000012   0.000005  -0.007204
    23  H    0.000000   0.000000   0.000389   0.000005  -0.000012  -0.007075
    24  C    0.000000   0.000000   0.000008   0.000000   0.000000  -0.000445
    25  H    0.000000   0.000000   0.000003   0.000000   0.000000   0.000376
    26  H    0.000000   0.000000   0.000002   0.000000   0.000000   0.000395
    27  C    0.000000   0.000000   0.000000   0.000000   0.000000   0.000007
    28  H    0.000000   0.000000   0.000000   0.000000   0.000000   0.000001
    29  H    0.000000   0.000000   0.000000   0.000000   0.000000  -0.000002
    30  C    0.000000   0.000000   0.000000   0.000000   0.000000   0.000000
    31  H    0.000000   0.000000   0.000000   0.000000   0.000000   0.000000
    32  H    0.000000   0.000000   0.000000   0.000000   0.000000   0.000000
    33  C    0.000000   0.000000   0.000000   0.000000   0.000000   0.000000
    34  H    0.000000   0.000000   0.000000   0.000000   0.000000   0.000000
    35  H    0.000000   0.000000   0.000000   0.000000   0.000000   0.000000
    36  H    0.000000   0.000000   0.000000   0.000000   0.000000   0.000000
              13         14         15         16         17         18
     1  C    0.000294   0.000299   0.000009   0.000007   0.000007   0.000000
     2  C   -0.006642  -0.006630  -0.000440   0.000318   0.000326   0.000008
     3  H    0.000008   0.000008   0.000000   0.000000   0.000000   0.000000
     4  H   -0.000053   0.000024   0.000000   0.000004  -0.000010   0.000000
     5  H    0.000024  -0.000053   0.000000  -0.000010   0.000004   0.000000
     6  C   -0.022350  -0.022324   0.008160  -0.007046  -0.007026  -0.000458
     7  H    0.007904  -0.002039   0.000004   0.000015  -0.000040   0.000000
     8  H   -0.002031   0.007902   0.000004  -0.000040   0.000015   0.000000
     9  C    0.372261   0.372146  -0.044163  -0.021643  -0.021715   0.008376
    10  H    0.009445  -0.011930   0.000436   0.007736  -0.002021   0.000001
    11  H   -0.011955   0.009445   0.000430  -0.002009   0.007744   0.000001
    12  C   -0.021273  -0.021189   0.366394   0.371732   0.371905  -0.045205
    13  H    0.696080  -0.036335  -0.007209   0.009383  -0.011861   0.000401
    14  H   -0.036335   0.696220  -0.007234  -0.011930   0.009380   0.000392
    15  C   -0.007209  -0.007234   4.745605  -0.021137  -0.021151   0.365884
    16  H    0.009383  -0.011930  -0.021137   0.696209  -0.036210  -0.007213
    17  H   -0.011861   0.009380  -0.021151  -0.036210   0.695885  -0.007226
    18  C    0.000401   0.000392   0.365884  -0.007213  -0.007226   4.746640
    19  H    0.007787  -0.001995   0.371749   0.009375  -0.011922  -0.021378
    20  H   -0.002008   0.007783   0.371625  -0.011895   0.009376  -0.021404
    21  C    0.000003   0.000003  -0.043940   0.000395   0.000394   0.363919
    22  H    0.000014  -0.000040  -0.020838   0.007792  -0.001992   0.371932
    23  H   -0.000040   0.000014  -0.021133  -0.002004   0.007785   0.372117
    24  C    0.000000   0.000000   0.008042   0.000004   0.000002  -0.042278
    25  H   -0.000012   0.000005  -0.006934   0.000014  -0.000040  -0.021179
    26  H    0.000005  -0.000012  -0.007282  -0.000040   0.000014  -0.020927
    27  C    0.000000   0.000000  -0.000435   0.000000   0.000000   0.008171
    28  H    0.000000   0.000000   0.000457  -0.000012   0.000005  -0.007331
    29  H    0.000000   0.000000   0.000398   0.000005  -0.000012  -0.007214
    30  C    0.000000   0.000000   0.000008   0.000000   0.000000  -0.000501
    31  H    0.000000   0.000000  -0.000003   0.000000   0.000000   0.000424
    32  H    0.000000   0.000000  -0.000011   0.000000   0.000000   0.000454
    33  C    0.000000   0.000000   0.000000   0.000000   0.000000   0.000009
    34  H    0.000000   0.000000   0.000000   0.000000   0.000000   0.000003
    35  H    0.000000   0.000000   0.000000   0.000000   0.000000   0.000000
    36  H    0.000000   0.000000   0.000000   0.000000   0.000000   0.000017
              19         20         21         22         23         24
     1  C    0.000000   0.000000   0.000000   0.000000   0.000000   0.000000
     2  C    0.000003   0.000003   0.000000   0.000000   0.000000   0.000000
     3  H    0.000000   0.000000   0.000000   0.000000   0.000000   0.000000
     4  H    0.000000   0.000000   0.000000   0.000000   0.000000   0.000000
     5  H    0.000000   0.000000   0.000000   0.000000   0.000000   0.000000
     6  C    0.000376   0.000385   0.000008   0.000003   0.000004   0.000000
     7  H   -0.000013   0.000005   0.000000   0.000000   0.000000   0.000000
     8  H    0.000005  -0.000012   0.000000   0.000000   0.000000   0.000000
     9  C   -0.007118  -0.007113  -0.000460   0.000391   0.000389   0.000008
    10  H    0.000014  -0.000040   0.000000  -0.000012   0.000005   0.000000
    11  H   -0.000040   0.000014   0.000000   0.000005  -0.000012   0.000000
    12  C   -0.021319  -0.021266   0.008375  -0.007204  -0.007075  -0.000445
    13  H    0.007787  -0.002008   0.000003   0.000014  -0.000040   0.000000
    14  H   -0.001995   0.007783   0.000003  -0.000040   0.000014   0.000000
    15  C    0.371749   0.371625  -0.043940  -0.020838  -0.021133   0.008042
    16  H    0.009375  -0.011895   0.000395   0.007792  -0.002004   0.000004
    17  H   -0.011922   0.009376   0.000394  -0.001992   0.007785   0.000002
    18  C   -0.021378  -0.021404   0.363919   0.371932   0.372117  -0.042278
    19  H    0.695948  -0.036180  -0.007240   0.009363  -0.011849   0.000413
    20  H   -0.036180   0.696348  -0.007206  -0.011924   0.009359   0.000374
    21  C   -0.007240  -0.007206   4.758441  -0.021779  -0.021720   0.357015
    22  H    0.009363  -0.011924  -0.021779   0.695401  -0.036094  -0.007076
    23  H   -0.011849   0.009359  -0.021720  -0.036094   0.694870  -0.006978
    24  C    0.000413   0.000374   0.357015  -0.007076  -0.006978   4.789203
    25  H    0.007764  -0.002002   0.373157   0.009334  -0.011937  -0.023149
    26  H   -0.001985   0.007756   0.370622  -0.011821   0.009367  -0.021904
    27  C    0.000002   0.000004  -0.042785   0.000299   0.000341   0.370968
    28  H    0.000012  -0.000041  -0.017745   0.007688  -0.001967   0.371617
    29  H   -0.000037   0.000012  -0.023628  -0.001978   0.007468   0.377595
    30  C    0.000000   0.000000   0.009143   0.000014  -0.000001  -0.065163
    31  H   -0.000012   0.000006  -0.006254   0.000015  -0.000022  -0.022347
    32  H    0.000005  -0.000011  -0.010970  -0.000043   0.000009  -0.016266
    33  C    0.000000   0.000000  -0.000452   0.000001  -0.000005   0.002011
    34  H    0.000000   0.000000  -0.000164   0.000000   0.000001   0.000893
    35  H    0.000000   0.000000   0.000024   0.000000   0.000000  -0.000348
    36  H    0.000000   0.000000  -0.000211  -0.000008   0.000004  -0.001408
              25         26         27         28         29         30
     1  C    0.000000   0.000000   0.000000   0.000000   0.000000   0.000000
     2  C    0.000000   0.000000   0.000000   0.000000   0.000000   0.000000
     3  H    0.000000   0.000000   0.000000   0.000000   0.000000   0.000000
     4  H    0.000000   0.000000   0.000000   0.000000   0.000000   0.000000
     5  H    0.000000   0.000000   0.000000   0.000000   0.000000   0.000000
     6  C    0.000000   0.000000   0.000000   0.000000   0.000000   0.000000
     7  H    0.000000   0.000000   0.000000   0.000000   0.000000   0.000000
     8  H    0.000000   0.000000   0.000000   0.000000   0.000000   0.000000
     9  C    0.000003   0.000002   0.000000   0.000000   0.000000   0.000000
    10  H    0.000000   0.000000   0.000000   0.000000   0.000000   0.000000
    11  H    0.000000   0.000000   0.000000   0.000000   0.000000   0.000000
    12  C    0.000376   0.000395   0.000007   0.000001  -0.000002   0.000000
    13  H   -0.000012   0.000005   0.000000   0.000000   0.000000   0.000000
    14  H    0.000005  -0.000012   0.000000   0.000000   0.000000   0.000000
    15  C   -0.006934  -0.007282  -0.000435   0.000457   0.000398   0.000008
    16  H    0.000014  -0.000040   0.000000  -0.000012   0.000005   0.000000
    17  H   -0.000040   0.000014   0.000000   0.000005  -0.000012   0.000000
    18  C   -0.021179  -0.020927   0.008171  -0.007331  -0.007214  -0.000501
    19  H    0.007764  -0.001985   0.000002   0.000012  -0.000037   0.000000
    20  H   -0.002002   0.007756   0.000004  -0.000041   0.000012   0.000000
    21  C    0.373157   0.370622  -0.042785  -0.017745  -0.023628   0.009143
    22  H    0.009334  -0.011821   0.000299   0.007688  -0.001978   0.000014
    23  H   -0.011937   0.009367   0.000341  -0.001967   0.007468  -0.000001
    24  C   -0.023149  -0.021904   0.370968   0.371617   0.377595  -0.065163
    25  H    0.694528  -0.036289  -0.006855   0.009282  -0.011698   0.000277
    26  H   -0.036289   0.696942  -0.006337  -0.011990   0.009355   0.000538
    27  C   -0.006855  -0.006337   4.708784  -0.025973  -0.031280   0.379091
    28  H    0.009282  -0.011990  -0.025973   0.692052  -0.036909  -0.006456
    29  H   -0.011698   0.009355  -0.031280  -0.036909   0.688176   0.004153
    30  C    0.000277   0.000538   0.379091  -0.006456   0.004153   4.777262
    31  H    0.007419  -0.002048   0.376871   0.009257  -0.011690  -0.026402
    32  H   -0.001779   0.008252   0.365530  -0.011583   0.009616  -0.010354
    33  C    0.000046  -0.000023  -0.055979   0.000025   0.000777   0.678944
    34  H   -0.000022   0.000006  -0.020322   0.000022   0.000387  -0.027388
    35  H    0.000001  -0.000001   0.010160   0.000017  -0.000090  -0.014976
    36  H    0.000011  -0.000028  -0.052410   0.005990  -0.001682   0.392420
              31         32         33         34         35         36
     1  C    0.000000   0.000000   0.000000   0.000000   0.000000   0.000000
     2  C    0.000000   0.000000   0.000000   0.000000   0.000000   0.000000
     3  H    0.000000   0.000000   0.000000   0.000000   0.000000   0.000000
     4  H    0.000000   0.000000   0.000000   0.000000   0.000000   0.000000
     5  H    0.000000   0.000000   0.000000   0.000000   0.000000   0.000000
     6  C    0.000000   0.000000   0.000000   0.000000   0.000000   0.000000
     7  H    0.000000   0.000000   0.000000   0.000000   0.000000   0.000000
     8  H    0.000000   0.000000   0.000000   0.000000   0.000000   0.000000
     9  C    0.000000   0.000000   0.000000   0.000000   0.000000   0.000000
    10  H    0.000000   0.000000   0.000000   0.000000   0.000000   0.000000
    11  H    0.000000   0.000000   0.000000   0.000000   0.000000   0.000000
    12  C    0.000000   0.000000   0.000000   0.000000   0.000000   0.000000
    13  H    0.000000   0.000000   0.000000   0.000000   0.000000   0.000000
    14  H    0.000000   0.000000   0.000000   0.000000   0.000000   0.000000
    15  C   -0.000003  -0.000011   0.000000   0.000000   0.000000   0.000000
    16  H    0.000000   0.000000   0.000000   0.000000   0.000000   0.000000
    17  H    0.000000   0.000000   0.000000   0.000000   0.000000   0.000000
    18  C    0.000424   0.000454   0.000009   0.000003   0.000000   0.000017
    19  H   -0.000012   0.000005   0.000000   0.000000   0.000000   0.000000
    20  H    0.000006  -0.000011   0.000000   0.000000   0.000000   0.000000
    21  C   -0.006254  -0.010970  -0.000452  -0.000164   0.000024  -0.000211
    22  H    0.000015  -0.000043   0.000001   0.000000   0.000000  -0.000008
    23  H   -0.000022   0.000009  -0.000005   0.000001   0.000000   0.000004
    24  C   -0.022347  -0.016266   0.002011   0.000893  -0.000348  -0.001408
    25  H    0.007419  -0.001779   0.000046  -0.000022   0.000001   0.000011
    26  H   -0.002048   0.008252  -0.000023   0.000006  -0.000001  -0.000028
    27  C    0.376871   0.365530  -0.055979  -0.020322   0.010160  -0.052410
    28  H    0.009257  -0.011583   0.000025   0.000022   0.000017   0.005990
    29  H   -0.011690   0.009616   0.000777   0.000387  -0.000090  -0.001682
    30  C   -0.026402  -0.010354   0.678944  -0.027388  -0.014976   0.392420
    31  H    0.683400  -0.035652  -0.009358   0.007029  -0.000154   0.008655
    32  H   -0.035652   0.669644   0.001512   0.000067  -0.000508  -0.008734
    33  C   -0.009358   0.001512   4.747011   0.392651   0.379171  -0.039103
    34  H    0.007029   0.000067   0.392651   0.645635  -0.049957   0.009574
    35  H   -0.000154  -0.000508   0.379171  -0.049957   0.645662  -0.015296
    36  H    0.008655  -0.008734  -0.039103   0.009574  -0.015296   0.669822
 Mulliken charges:
               1
     1  C   -0.053469
     2  C   -0.078583
     3  H    0.034966
     4  H    0.032812
     5  H    0.032757
     6  C   -0.057570
     7  H    0.026800
     8  H    0.026774
     9  C   -0.036605
    10  H    0.019278
    11  H    0.019360
    12  C   -0.037092
    13  H    0.018160
    14  H    0.018090
    15  C   -0.037294
    16  H    0.018196
    17  H    0.018382
    18  C   -0.036438
    19  H    0.018272
    20  H    0.018051
    21  C   -0.036948
    22  H    0.018557
    23  H    0.019101
    24  C   -0.070786
    25  H    0.019677
    26  H    0.017431
    27  C    0.022147
    28  H    0.023581
    29  H    0.028279
    30  C   -0.090609
    31  H    0.020869
    32  H    0.040821
    33  C   -0.097237
    34  H    0.041586
    35  H    0.046296
    36  H    0.032387
 Sum of Mulliken charges =   0.00000
 Mulliken charges with hydrogens summed into heavy atoms:
               1
     1  C    0.047066
     2  C   -0.025009
     6  C   -0.018932
     9  C   -0.000354
    12  C   -0.000514
    15  C   -0.000971
    18  C    0.001220
    21  C    0.000161
    24  C   -0.018926
    27  C    0.083837
    30  C   -0.058222
    33  C   -0.009355
 Electronic spatial extent (au):  <R**2>=           6921.3787
 Charge=              0.0000 electrons
 Dipole moment (field-independent basis, Debye):
    X=             -0.4491    Y=              0.1499    Z=             -0.1771  Tot=              0.5055
 Quadrupole moment (field-independent basis, Debye-Ang):
   XX=            -85.5237   YY=            -81.7160   ZZ=            -77.8497
   XY=             -0.1517   XZ=             -0.8725   YZ=              0.1109
 Traceless Quadrupole moment (field-independent basis, Debye-Ang):
   XX=             -3.8273   YY=             -0.0195   ZZ=              3.8468
   XY=             -0.1517   XZ=             -0.8725   YZ=              0.1109
 Octapole moment (field-independent basis, Debye-Ang**2):
  XXX=            -21.7570  YYY=              1.6758  ZZZ=              0.5350  XYY=             -6.7434
  XXY=              1.6719  XXZ=             -4.2663  XZZ=              2.3440  YZZ=             -0.4661
  YYZ=             -1.1596  XYZ=              2.1403
 Hexadecapole moment (field-independent basis, Debye-Ang**3):
 XXXX=          -9458.8048 YYYY=           -275.9565 ZZZZ=           -190.0646 XXXY=            -69.7375
 XXXZ=            -20.9790 YYYX=              9.9758 YYYZ=             -1.1095 ZZZX=              4.3066
 ZZZY=              0.7677 XXYY=          -1635.2011 XXZZ=          -1526.2717 YYZZ=            -73.0331
 XXYZ=             10.8932 YYXZ=             -7.7059 ZZXY=             -0.9662
 N-N= 6.547569266972D+02 E-N=-2.395842301682D+03  KE= 4.650798866518D+02
   1 Symmetry operations used in ECPInt.
 ECPInt:  NShTT=   10440 NPrTT=   35208 LenC2=    8763 LenP2D=   21887.
 LDataN:  DoStor=T MaxTD1= 5 Len=  102
 Calling FoFJK, ICntrl=      2127 FMM=F ISym2X=0 I1Cent= 0 IOpClX= 0 NMat=1 NMatS=1 NMatT=0.
 ***** Axes restored to original set *****
 -------------------------------------------------------------------
 Center     Atomic                   Forces (Hartrees/Bohr)
 Number     Number              X              Y              Z
 -------------------------------------------------------------------
      1        6           0.005903128    0.000006279    0.008759243
      2        6          -0.015548881   -0.000016147   -0.013129150
      3        1           0.003364780   -0.000000999   -0.004687437
      4        1          -0.002699335    0.003584803   -0.002779489
      5        1          -0.002700547   -0.003591773   -0.002780679
      6        6           0.021479086    0.000036188    0.014429708
      7        1           0.003036954    0.003846653    0.004288399
      8        1           0.003049260   -0.003840707    0.004286144
      9        6          -0.021515533   -0.000059408   -0.014637369
     10        1          -0.003900796   -0.004383749   -0.002728153
     11        1          -0.003906628    0.004369601   -0.002737104
     12        6           0.021586687    0.000099092    0.014611826
     13        1           0.003873734    0.004300127    0.002627143
     14        1           0.003902398   -0.004279198    0.002629412
     15        6          -0.021541935   -0.000111531   -0.014635683
     16        1          -0.003900820   -0.004319956   -0.002620335
     17        1          -0.003915200    0.004281885   -0.002644383
     18        6           0.021459837    0.000175669    0.014698100
     19        1           0.003871491    0.004320110    0.002634351
     20        1           0.003921116   -0.004278111    0.002649091
     21        6          -0.021417024   -0.000565038   -0.014753514
     22        1          -0.003865296   -0.004325726   -0.002620975
     23        1          -0.003905928    0.004250940   -0.002631959
     24        6           0.022998649   -0.001566301    0.009422269
     25        1           0.003820807    0.004344113    0.002671322
     26        1           0.004000891   -0.004343889    0.002713342
     27        6          -0.024632846    0.008460861   -0.023587606
     28        1          -0.003781672   -0.004106894   -0.002381437
     29        1          -0.003516286    0.003631148   -0.001311761
     30        6           0.012081142    0.009331312    0.007575765
     31        1           0.001577979    0.004095145    0.002941043
     32        1           0.002596471   -0.004880623    0.002308722
     33        6          -0.000777420   -0.008092738   -0.004197661
     34        1           0.015993147    0.005276557    0.012589611
     35        1          -0.019029541    0.003500589   -0.007739403
     36        1           0.002038129   -0.015148283    0.010768604
 -------------------------------------------------------------------
 Cartesian Forces:  Max     0.024632846 RMS     0.009042712
 -----------------------------------------------------------------------------------------------
                       Internal Coordinate Forces (Hartree/Bohr or radian)
  Cent   Atom   N1       Length/X         N2         Alpha/Y        N3         Beta/Z          J
 -----------------------------------------------------------------------------------------------
      1  C 
      2  C        1   0.001488(     1)
      3  H        1   0.004780(     2)      2   0.006685(    36)
      4  H        1   0.005152(     3)      2   0.002068(    37)      3  -0.001092(    70)     0
      5  H        1   0.005159(     4)      2   0.002064(    38)      3   0.001087(    71)     0
      6  C        2  -0.002991(     5)      1   0.010405(    39)      3  -0.000008(    72)     0
      7  H        2   0.006004(     6)      1   0.005086(    40)      3  -0.001129(    73)     0
      8  H        2   0.006005(     7)      1   0.005080(    41)      3   0.001148(    74)     0
      9  C        6  -0.002944(     8)      2   0.011589(    42)      1  -0.000046(    75)     0
     10  H        6   0.006352(     9)      2   0.001109(    43)      1  -0.002175(    76)     0
     11  H        6   0.006350(    10)      2   0.001108(    44)      1   0.002176(    77)     0
     12  C        9  -0.002902(    11)      6   0.011710(    45)      2  -0.000021(    78)     0
     13  H        9   0.006237(    12)      6   0.001220(    46)      2  -0.002100(    79)     0
     14  H        9   0.006240(    13)      6   0.001200(    47)      2   0.002125(    80)     0
     15  C       12  -0.002910(    14)      9   0.011702(    48)      6  -0.000053(    81)     0
     16  H       12   0.006262(    15)      9   0.001271(    49)      6  -0.002102(    82)     0
     17  H       12   0.006255(    16)      9   0.001263(    50)      6   0.002101(    83)     0
     18  C       15  -0.002882(    17)     12   0.011704(    51)      9  -0.000033(    84)     0
     19  H       15   0.006251(    18)     12   0.001242(    52)      9  -0.002103(    85)     0
     20  H       15   0.006258(    19)     12   0.001211(    53)      9   0.002131(    86)     0
     21  C       18  -0.003002(    20)     15   0.011681(    54)     12  -0.000013(    87)     0
     22  H       18   0.006246(    21)     15   0.001222(    55)     12  -0.002107(    88)     0
     23  H       18   0.006225(    22)     15   0.001267(    56)     12   0.002075(    89)     0
     24  C       21  -0.002825(    23)     18   0.011632(    57)     15  -0.000230(    90)     0
     25  H       21   0.006254(    24)     18   0.001341(    58)     15  -0.002023(    91)     0
     26  H       21   0.006375(    25)     18   0.001245(    59)     15   0.002170(    92)     0
     27  C       24   0.000639(    26)     21   0.012774(    60)     18   0.001500(    93)     0
     28  H       24   0.005949(    27)     21   0.001495(    61)     18  -0.001890(    94)     0
     29  H       24   0.005091(    28)     21   0.002376(    62)     18   0.000398(    95)     0
     30  C       27  -0.002557(    29)     24   0.018949(    63)     21   0.000028(    96)     0
     31  H       27   0.005040(    30)     24   0.002810(    64)     21   0.001597(    97)     0
     32  H       27   0.005977(    31)     24   0.000573(    65)     21  -0.000594(    98)     0
     33  C       30   0.002357(    32)     27   0.003858(    66)     24  -0.034587(    99)     0
     34  H       33   0.008353(    33)     30   0.000679(    67)     27  -0.033652(   100)     0
     35  H       33   0.007223(    34)     30   0.004624(    68)     27  -0.034237(   101)     0
     36  H       30   0.008739(    35)     27  -0.003935(    69)     24   0.030109(   102)     0
 -----------------------------------------------------------------------------------------------
 Internal  Forces:  Max     0.034586583 RMS     0.008360692

 GradGradGradGradGradGradGradGradGradGradGradGradGradGradGradGradGradGrad
 Berny optimization.
 Search for a local minimum.
 Step number   1 out of a maximum of  200
 All quantities printed in internal units (Hartrees-Bohrs-Radians)
 Second derivative matrix not updated -- first step.
 ITU=  0
     Eigenvalues ---    0.01014   0.01016   0.01027   0.01028   0.01028
     Eigenvalues ---    0.01029   0.01039   0.01072   0.01312   0.01976
     Eigenvalues ---    0.08427   0.13370   0.15083   0.15094   0.15113
     Eigenvalues ---    0.15114   0.15115   0.15120   0.15130   0.15296
     Eigenvalues ---    0.15820   0.16000   0.17237   0.17292   0.17292
     Eigenvalues ---    0.17293   0.17293   0.17294   0.17306   0.17325
     Eigenvalues ---    0.17544   0.19880   0.20946   0.23861   0.29418
     Eigenvalues ---    0.29426   0.29460   0.29461   0.29462   0.29462
     Eigenvalues ---    0.29463   0.29566   0.30331   0.32194   0.33834
     Eigenvalues ---    0.33966   0.33967   0.34027   0.34033   0.34033
     Eigenvalues ---    0.34036   0.34036   0.34037   0.34037   0.34037
     Eigenvalues ---    0.34037   0.34037   0.34037   0.34037   0.34037
     Eigenvalues ---    0.34064   0.34104   0.34104   0.34276   0.34277
     Eigenvalues ---    0.34299   0.35012   0.35313   0.35332   0.36582
     Eigenvalues ---    0.36628   0.36659   0.36681   0.36682   0.36682
     Eigenvalues ---    0.36687   0.36695   0.37162   0.39241   0.39324
     Eigenvalues ---    0.39326   0.39326   0.39328   0.39328   0.39338
     Eigenvalues ---    0.39352   0.39418   0.39725   0.42862   0.42864
     Eigenvalues ---    0.42864   0.42864   0.42875   0.42885   0.42900
     Eigenvalues ---    0.42929   0.43149   0.48000   0.53120   0.57454
     Eigenvalues --- 1000.000001000.00000
 RFO step:  Lambda=-1.78849352D-02 EMin= 1.01392977D-02
 Linear search not attempted -- first point.
 Variable       Old X    -DE/DX   Delta X   Delta X   Delta X     New X
                                 (Linear)    (Quad)   (Total)
    B1        2.87308   0.00149   0.00000   0.00463   0.00463   2.87772
    B2        2.06829   0.00478   0.00000   0.01325   0.01325   2.08153
    A2        1.92443   0.00669   0.00000   0.02931   0.02931   1.95374
    B3        2.06866   0.00515   0.00000   0.01429   0.01429   2.08295
    A3        1.93731   0.00207   0.00000   0.00045   0.00045   1.93776
    D3        4.19337  -0.00109   0.00000  -0.00847  -0.00847   4.18490
    B4        2.06865   0.00516   0.00000   0.01430   0.01430   2.08295
    A4        1.93737   0.00206   0.00000   0.00066   0.00066   1.93803
    D4        2.08990   0.00109   0.00000   0.00923   0.00923   2.09913
    B5        2.88837  -0.00299   0.00000  -0.00954  -0.00954   2.87883
    A5        1.94593   0.01041   0.00000   0.02797   0.02797   1.97390
    D5        3.14200  -0.00001   0.00000  -0.00340  -0.00340   3.13860
    B6        2.07156   0.00600   0.00000   0.01673   0.01673   2.08828
    A6        1.90492   0.00509   0.00000   0.01111   0.01111   1.91603
    D6        1.02042  -0.00113   0.00000  -0.00921  -0.00921   1.01121
    B7        2.07156   0.00601   0.00000   0.01673   0.01673   2.08829
    A7        1.90497   0.00508   0.00000   0.01052   0.01052   1.91549
    D7        5.26348   0.00115   0.00000   0.00308   0.00308   5.26657
    B8        2.89047  -0.00294   0.00000  -0.00942  -0.00942   2.88105
    A8        1.94309   0.01159   0.00000   0.03930   0.03930   1.98239
    D8        3.14277  -0.00005   0.00000  -0.00973  -0.00973   3.13304
    B9        2.07275   0.00635   0.00000   0.01773   0.01773   2.09048
    A9        1.91232   0.00111   0.00000  -0.00604  -0.00604   1.90628
    D9        1.02439  -0.00217   0.00000  -0.02175  -0.02175   1.00264
   B10        2.07275   0.00635   0.00000   0.01773   0.01773   2.09047
   A10        1.91235   0.00111   0.00000  -0.00515  -0.00515   1.90721
   D10        5.26097   0.00218   0.00000   0.00668   0.00668   5.26765
   B11        2.89051  -0.00290   0.00000  -0.00929  -0.00929   2.88122
   A11        1.94306   0.01171   0.00000   0.03866   0.03866   1.98172
   D11        3.14246  -0.00002   0.00000  -0.00336  -0.00336   3.13910
   B12        2.07269   0.00624   0.00000   0.01741   0.01741   2.09010
   A12        1.91222   0.00122   0.00000  -0.00478  -0.00478   1.90744
   D12        1.02436  -0.00210   0.00000  -0.01681  -0.01681   1.00755
[...]
     4  H   -0.009907   0.008654   0.000441  -0.001916   0.007722  -0.000007
     5  H    0.008654  -0.009872   0.000445   0.007742  -0.001920  -0.000007
     6  C   -0.024684  -0.024687   0.366714   0.372530   0.372504  -0.039142
     7  H    0.692885  -0.036044  -0.007314   0.009830  -0.012013   0.000334
     8  H   -0.036044   0.692967  -0.007341  -0.012018   0.009829   0.000332
     9  C   -0.007314  -0.007341   4.747719  -0.022025  -0.021936   0.368611
    10  H    0.009830  -0.012018  -0.022025   0.700092  -0.038211  -0.007499
    11  H   -0.012013   0.009829  -0.021936  -0.038211   0.699920  -0.007495
    12  C    0.000334   0.000332   0.368611  -0.007499  -0.007495   4.743349
    13  H    0.008369  -0.002086   0.370072   0.009715  -0.012069  -0.022358
    14  H   -0.002092   0.008389   0.370138  -0.012029   0.009716  -0.022390
    15  C    0.000004   0.000004  -0.040803   0.000406   0.000402   0.372245
    16  H    0.000020  -0.000042  -0.022859   0.008144  -0.002025   0.369870
    17  H   -0.000042   0.000020  -0.022818  -0.002031   0.008126   0.369905
    18  C    0.000000   0.000000   0.007925   0.000001   0.000001  -0.042060
    19  H   -0.000011   0.000004  -0.007139   0.000018  -0.000041  -0.022510
    20  H    0.000004  -0.000011  -0.007153  -0.000041   0.000018  -0.022545
    21  C    0.000000   0.000000  -0.000407   0.000000   0.000000   0.007962
    22  H    0.000000   0.000000   0.000357  -0.000011   0.000005  -0.007221
    23  H    0.000000   0.000000   0.000356   0.000005  -0.000011  -0.007121
    24  C    0.000000   0.000000   0.000006   0.000000   0.000000  -0.000395
    25  H    0.000000   0.000000   0.000003   0.000000   0.000000   0.000349
    26  H    0.000000   0.000000   0.000003   0.000000   0.000000   0.000361
    27  C    0.000000   0.000000   0.000000   0.000000   0.000000   0.000006
    28  H    0.000000   0.000000   0.000000   0.000000   0.000000   0.000002
    29  H    0.000000   0.000000   0.000000   0.000000   0.000000   0.000000
    30  C    0.000000   0.000000   0.000000   0.000000   0.000000   0.000000
    31  H    0.000000   0.000000   0.000000   0.000000   0.000000   0.000000
    32  H    0.000000   0.000000   0.000000   0.000000   0.000000   0.000000
    33  C    0.000000   0.000000   0.000000   0.000000   0.000000   0.000000
    34  H    0.000000   0.000000   0.000000   0.000000   0.000000   0.000000
    35  H    0.000000   0.000000   0.000000   0.000000   0.000000   0.000000
    36  H    0.000000   0.000000   0.000000   0.000000   0.000000   0.000000
              13         14         15         16         17         18
     1  C    0.000269   0.000274   0.000007   0.000007   0.000007   0.000000
     2  C   -0.006704  -0.006708  -0.000377   0.000293   0.000295   0.000006
     3  H    0.000008   0.000008   0.000000   0.000000   0.000000   0.000000
     4  H   -0.000050   0.000025   0.000000   0.000003  -0.000009   0.000000
     5  H    0.000025  -0.000051   0.000000  -0.000009   0.000003   0.000000
     6  C   -0.023481  -0.023572   0.007667  -0.007093  -0.007065  -0.000401
     7  H    0.008369  -0.002092   0.000004   0.000020  -0.000042   0.000000
     8  H   -0.002086   0.008389   0.000004  -0.000042   0.000020   0.000000
     9  C    0.370072   0.370138  -0.040803  -0.022859  -0.022818   0.007925
    10  H    0.009715  -0.012029   0.000406   0.008144  -0.002031   0.000001
    11  H   -0.012069   0.009716   0.000402  -0.002025   0.008126   0.000001
    12  C   -0.022358  -0.022390   0.372245   0.369870   0.369905  -0.042060
    13  H    0.699490  -0.037462  -0.007276   0.009665  -0.012020   0.000366
    14  H   -0.037462   0.699643  -0.007307  -0.012037   0.009661   0.000364
    15  C   -0.007276  -0.007307   4.740234  -0.022384  -0.022334   0.372235
    16  H    0.009665  -0.012037  -0.022384   0.699312  -0.037351  -0.007275
    17  H   -0.012020   0.009661  -0.022334  -0.037351   0.698949  -0.007255
    18  C    0.000366   0.000364   0.372235  -0.007275  -0.007255   4.741436
    19  H    0.008180  -0.002023   0.369831   0.009655  -0.012062  -0.022612
    20  H   -0.002031   0.008199   0.369841  -0.012028   0.009657  -0.022697
    21  C    0.000003   0.000003  -0.041048   0.000366   0.000362   0.368341
    22  H    0.000019  -0.000040  -0.022158   0.008192  -0.002016   0.369851
    23  H   -0.000041   0.000019  -0.022100  -0.002024   0.008168   0.369841
    24  C    0.000000   0.000000   0.007675   0.000004   0.000002  -0.038505
    25  H   -0.000011   0.000005  -0.007228   0.000019  -0.000040  -0.021770
    26  H    0.000005  -0.000011  -0.007045  -0.000040   0.000019  -0.022623
    27  C    0.000000   0.000000  -0.000371   0.000000   0.000000   0.007378
    28  H    0.000000   0.000000   0.000378  -0.000011   0.000004  -0.007205
    29  H    0.000000   0.000000   0.000398   0.000004  -0.000011  -0.007462
    30  C    0.000000   0.000000   0.000006   0.000000   0.000000  -0.000374
    31  H    0.000000   0.000000   0.000004   0.000000   0.000000   0.000286
    32  H    0.000000   0.000000  -0.000005   0.000000   0.000000   0.000404
    33  C    0.000000   0.000000   0.000000   0.000000   0.000000   0.000008
    34  H    0.000000   0.000000   0.000000   0.000000   0.000000   0.000001
    35  H    0.000000   0.000000   0.000000   0.000000   0.000000   0.000000
    36  H    0.000000   0.000000   0.000000   0.000000   0.000000   0.000004
              19         20         21         22         23         24
     1  C    0.000000   0.000000   0.000000   0.000000   0.000000   0.000000
     2  C    0.000003   0.000003   0.000000   0.000000   0.000000   0.000000
     3  H    0.000000   0.000000   0.000000   0.000000   0.000000   0.000000
     4  H    0.000000   0.000000   0.000000   0.000000   0.000000   0.000000
     5  H    0.000000   0.000000   0.000000   0.000000   0.000000   0.000000
     6  C    0.000347   0.000354   0.000006   0.000003   0.000004   0.000000
     7  H   -0.000011   0.000004   0.000000   0.000000   0.000000   0.000000
     8  H    0.000004  -0.000011   0.000000   0.000000   0.000000   0.000000
     9  C   -0.007139  -0.007153  -0.000407   0.000357   0.000356   0.000006
    10  H    0.000018  -0.000041   0.000000  -0.000011   0.000005   0.000000
    11  H   -0.000041   0.000018   0.000000   0.000005  -0.000011   0.000000
    12  C   -0.022510  -0.022545   0.007962  -0.007221  -0.007121  -0.000395
    13  H    0.008180  -0.002031   0.000003   0.000019  -0.000041   0.000000
    14  H   -0.002023   0.008199   0.000003  -0.000040   0.000019   0.000000
    15  C    0.369831   0.369841  -0.041048  -0.022158  -0.022100   0.007675
    16  H    0.009655  -0.012028   0.000366   0.008192  -0.002024   0.000004
    17  H   -0.012062   0.009657   0.000362  -0.002016   0.008168   0.000002
    18  C   -0.022612  -0.022697   0.368341   0.369851   0.369841  -0.038505
    19  H    0.699114  -0.037354  -0.007265   0.009642  -0.012019   0.000370
    20  H   -0.037354   0.699492  -0.007260  -0.012032   0.009627   0.000346
    21  C   -0.007265  -0.007260   4.758073  -0.022804  -0.022400   0.356484
    22  H    0.009642  -0.012032  -0.022804   0.698638  -0.037216  -0.007148
    23  H   -0.012019   0.009627  -0.022400  -0.037216   0.697640  -0.007201
    24  C    0.000370   0.000346   0.356484  -0.007148  -0.007201   4.803065
    25  H    0.008158  -0.002020   0.369147   0.009635  -0.012091  -0.023070
    26  H   -0.002020   0.008151   0.370541  -0.011947   0.009632  -0.024283
    27  C    0.000002   0.000001  -0.036169   0.000307   0.000306   0.353926
    28  H    0.000017  -0.000043  -0.021068   0.008125  -0.002014   0.370195
    29  H   -0.000037   0.000016  -0.021420  -0.001989   0.007883   0.372720
    30  C    0.000000   0.000000   0.007760   0.000012  -0.000003  -0.053115
    31  H   -0.000010   0.000004  -0.005508   0.000019  -0.000032  -0.022812
    32  H    0.000005  -0.000011  -0.009734  -0.000047   0.000019  -0.024926
    33  C    0.000000   0.000000  -0.000499   0.000000  -0.000001   0.008249
    34  H    0.000000   0.000000  -0.000048   0.000000   0.000000   0.000700
    35  H    0.000000   0.000000   0.000017   0.000000   0.000000  -0.000417
    36  H    0.000000   0.000000   0.000045  -0.000008   0.000003  -0.004489
              25         26         27         28         29         30
     1  C    0.000000   0.000000   0.000000   0.000000   0.000000   0.000000
     2  C    0.000000   0.000000   0.000000   0.000000   0.000000   0.000000
     3  H    0.000000   0.000000   0.000000   0.000000   0.000000   0.000000
     4  H    0.000000   0.000000   0.000000   0.000000   0.000000   0.000000
     5  H    0.000000   0.000000   0.000000   0.000000   0.000000   0.000000
     6  C    0.000000   0.000000   0.000000   0.000000   0.000000   0.000000
     7  H    0.000000   0.000000   0.000000   0.000000   0.000000   0.000000
     8  H    0.000000   0.000000   0.000000   0.000000   0.000000   0.000000
     9  C    0.000003   0.000003   0.000000   0.000000   0.000000   0.000000
    10  H    0.000000   0.000000   0.000000   0.000000   0.000000   0.000000
    11  H    0.000000   0.000000   0.000000   0.000000   0.000000   0.000000
    12  C    0.000349   0.000361   0.000006   0.000002   0.000000   0.000000
    13  H   -0.000011   0.000005   0.000000   0.000000   0.000000   0.000000
    14  H    0.000005  -0.000011   0.000000   0.000000   0.000000   0.000000
    15  C   -0.007228  -0.007045  -0.000371   0.000378   0.000398   0.000006
    16  H    0.000019  -0.000040   0.000000  -0.000011   0.000004   0.000000
    17  H   -0.000040   0.000019   0.000000   0.000004  -0.000011   0.000000
    18  C   -0.021770  -0.022623   0.007378  -0.007205  -0.007462  -0.000374
    19  H    0.008158  -0.002020   0.000002   0.000017  -0.000037   0.000000
    20  H   -0.002020   0.008151   0.000001  -0.000043   0.000016   0.000000
    21  C    0.369147   0.370541  -0.036169  -0.021068  -0.021420   0.007760
    22  H    0.009635  -0.011947   0.000307   0.008125  -0.001989   0.000012
    23  H   -0.012091   0.009632   0.000306  -0.002014   0.007883  -0.000003
    24  C   -0.023070  -0.024283   0.353926   0.370195   0.372720  -0.053115
    25  H    0.698161  -0.037451  -0.006567   0.009582  -0.011809   0.000245
    26  H   -0.037451   0.699841  -0.006817  -0.012154   0.009606   0.000424
    27  C   -0.006567  -0.006817   4.742338  -0.025604  -0.028299   0.381239
    28  H    0.009582  -0.012154  -0.025604   0.694499  -0.036868  -0.007854
    29  H   -0.011809   0.009606  -0.028299  -0.036868   0.688520   0.001715
    30  C    0.000245   0.000424   0.381239  -0.007854   0.001715   4.757498
    31  H    0.007475  -0.002006   0.368278   0.009075  -0.011857  -0.028621
    32  H   -0.001942   0.009139   0.373827  -0.010666   0.009681  -0.012022
    33  C    0.000042  -0.000021  -0.055756   0.000511   0.000233   0.680259
    34  H   -0.000007   0.000003  -0.020212   0.000029  -0.000025  -0.026080
    35  H    0.000000  -0.000001   0.009699   0.000011  -0.000017  -0.008226
    36  H    0.000023  -0.000040  -0.057192   0.007599  -0.001680   0.383656
              31         32         33         34         35         36
     1  C    0.000000   0.000000   0.000000   0.000000   0.000000   0.000000
     2  C    0.000000   0.000000   0.000000   0.000000   0.000000   0.000000
     3  H    0.000000   0.000000   0.000000   0.000000   0.000000   0.000000
     4  H    0.000000   0.000000   0.000000   0.000000   0.000000   0.000000
     5  H    0.000000   0.000000   0.000000   0.000000   0.000000   0.000000
     6  C    0.000000   0.000000   0.000000   0.000000   0.000000   0.000000
     7  H    0.000000   0.000000   0.000000   0.000000   0.000000   0.000000
     8  H    0.000000   0.000000   0.000000   0.000000   0.000000   0.000000
     9  C    0.000000   0.000000   0.000000   0.000000   0.000000   0.000000
    10  H    0.000000   0.000000   0.000000   0.000000   0.000000   0.000000
    11  H    0.000000   0.000000   0.000000   0.000000   0.000000   0.000000
    12  C    0.000000   0.000000   0.000000   0.000000   0.000000   0.000000
    13  H    0.000000   0.000000   0.000000   0.000000   0.000000   0.000000
    14  H    0.000000   0.000000   0.000000   0.000000   0.000000   0.000000
    15  C    0.000004  -0.000005   0.000000   0.000000   0.000000   0.000000
    16  H    0.000000   0.000000   0.000000   0.000000   0.000000   0.000000
    17  H    0.000000   0.000000   0.000000   0.000000   0.000000   0.000000
    18  C    0.000286   0.000404   0.000008   0.000001   0.000000   0.000004
    19  H   -0.000010   0.000005   0.000000   0.000000   0.000000   0.000000
    20  H    0.000004  -0.000011   0.000000   0.000000   0.000000   0.000000
    21  C   -0.005508  -0.009734  -0.000499  -0.000048   0.000017   0.000045
    22  H    0.000019  -0.000047   0.000000   0.000000   0.000000  -0.000008
    23  H   -0.000032   0.000019  -0.000001   0.000000   0.000000   0.000003
    24  C   -0.022812  -0.024926   0.008249   0.000700  -0.000417  -0.004489
    25  H    0.007475  -0.001942   0.000042  -0.000007   0.000000   0.000023
    26  H   -0.002006   0.009139  -0.000021   0.000003  -0.000001  -0.000040
    27  C    0.368278   0.373827  -0.055756  -0.020212   0.009699  -0.057192
    28  H    0.009075  -0.010666   0.000511   0.000029   0.000011   0.007599
    29  H   -0.011857   0.009681   0.000233  -0.000025  -0.000017  -0.001680
    30  C   -0.028621  -0.012022   0.680259  -0.026080  -0.008226   0.383656
    31  H    0.682553  -0.032078  -0.006739   0.008740  -0.000358   0.009369
    32  H   -0.032078   0.665291  -0.007229  -0.000263  -0.000332  -0.007952
    33  C   -0.006739  -0.007229   4.749721   0.389838   0.374915  -0.034060
    34  H    0.008740  -0.000263   0.389838   0.644654  -0.049188   0.009836
    35  H   -0.000358  -0.000332   0.374915  -0.049188   0.644741  -0.018527
    36  H    0.009369  -0.007952  -0.034060   0.009836  -0.018527   0.686226
 Mulliken charges:
               1
     1  C   -0.062130
     2  C   -0.077760
     3  H    0.039238
     4  H    0.035136
     5  H    0.035051
     6  C   -0.062587
     7  H    0.028168
     8  H    0.028103
     9  C   -0.039891
    10  H    0.020319
    11  H    0.020456
    12  C   -0.039876
    13  H    0.019404
    14  H    0.019279
    15  C   -0.040901
    16  H    0.019623
    17  H    0.019874
    18  C   -0.038208
    19  H    0.019758
    20  H    0.019512
    21  C   -0.043481
    22  H    0.019833
    23  H    0.020771
    24  C   -0.067382
    25  H    0.021160
    26  H    0.018734
    27  C   -0.000321
    28  H    0.023461
    29  H    0.030697
    30  C   -0.076518
    31  H    0.024220
    32  H    0.048839
    33  C   -0.099471
    34  H    0.042021
    35  H    0.047683
    36  H    0.027187
 Sum of Mulliken charges =   0.00000
 Mulliken charges with hydrogens summed into heavy atoms:
               1
     1  C    0.047295
     2  C   -0.021490
     6  C   -0.021812
     9  C   -0.001208
    12  C   -0.000379
    15  C   -0.001631
    18  C    0.002396
    21  C   -0.003587
    24  C   -0.013224
    27  C    0.072738
    30  C   -0.049331
    33  C   -0.009767
 Electronic spatial extent (au):  <R**2>=           7092.7191
 Charge=              0.0000 electrons
 Dipole moment (field-independent basis, Debye):
    X=             -0.3958    Y=              0.2258    Z=             -0.2510  Tot=              0.5202
 Quadrupole moment (field-independent basis, Debye-Ang):
   XX=            -83.5413   YY=            -81.4156   ZZ=            -79.1898
   XY=              0.8803   XZ=             -1.3177   YZ=              1.2141
 Traceless Quadrupole moment (field-independent basis, Debye-Ang):
   XX=             -2.1591   YY=             -0.0334   ZZ=              2.1924
   XY=              0.8803   XZ=             -1.3177   YZ=              1.2141
 Octapole moment (field-independent basis, Debye-Ang**2):
  XXX=            -13.6785  YYY=              0.5862  ZZZ=             -0.1810  XYY=             -3.8347
  XXY=              8.2191  XXZ=             -7.7364  XZZ=             -1.4618  YZZ=              0.6235
  YYZ=             -0.7566  XYZ=              6.8182
 Hexadecapole moment (field-independent basis, Debye-Ang**3):
 XXXX=          -9545.4603 YYYY=           -268.3355 ZZZZ=           -171.5805 XXXY=              1.5720
 XXXZ=            -40.9218 YYYX=              3.3420 YYYZ=              3.4340 ZZZX=             -1.4721
 ZZZY=              0.6281 XXYY=          -1662.3207 XXZZ=          -1601.9171 YYZZ=            -68.2206
 XXYZ=             50.3144 YYXZ=             -4.0017 ZZXY=              6.7988
 N-N= 6.514735610582D+02 E-N=-2.389015326710D+03  KE= 4.648777311555D+02
 1\1\GINC-NODE0183\POpt\RM06\def2SVP\C12H24\JGOODPAS\17-Oct-2017\1\\# O
 pt=(Z-mat,maxcycle=200) m06/def2svp Integral=SuperFineGrid\\C12H24\\0,
 1\C\C,1,B1\H,1,B2,2,A2\H,1,B3,2,A3,3,D3,0\H,1,B4,2,A4,3,D4,0\C,2,B5,1,
 A5,3,D5,0\H,2,B6,1,A6,3,D6,0\H,2,B7,1,A7,3,D7,0\C,6,B8,2,A8,1,D8,0\H,6
 ,B9,2,A9,1,D9,0\H,6,B10,2,A10,1,D10,0\C,9,B11,6,A11,2,D11,0\H,9,B12,6,
 A12,2,D12,0\H,9,B13,6,A13,2,D13,0\C,12,B14,9,A14,6,D14,0\H,12,B15,9,A1
 5,6,D15,0\H,12,B16,9,A16,6,D16,0\C,15,B17,12,A17,9,D17,0\H,15,B18,12,A
 18,9,D18,0\H,15,B19,12,A19,9,D19,0\C,18,B20,15,A20,12,D20,0\H,18,B21,1
 5,A21,12,D21,0\H,18,B22,15,A22,12,D22,0\C,21,B23,18,A23,15,D23,0\H,21,
 B24,18,A24,15,D24,0\H,21,B25,18,A25,15,D25,0\C,24,B26,21,A26,18,D26,0\
 H,24,B27,21,A27,18,D27,0\H,24,B28,21,A28,18,D28,0\C,27,B29,24,A29,21,D
 29,0\H,27,B30,24,A30,21,D30,0\H,27,B31,24,A31,21,D31,0\C,30,B32,27,A32
 ,24,D32,0\H,33,B33,30,A33,27,D33,0\H,33,B34,30,A34,27,D34,0\H,30,B35,2
 7,A35,24,D35,0\\B1=1.51592573\B2=1.10118013\A2=112.26253194\B3=1.10338
 359\A3=111.19513233\D3=239.56190817\B4=1.10339497\A4=111.18796851\D4=1
 20.42095857\B5=1.51869072\A5=113.10915133\D5=180.07974589\B6=1.1069180
 4\A6=110.00503775\D6=57.82596371\B7=1.10692103\A7=109.99794002\D7=302.
 32034658\B8=1.51744398\A8=113.76018309\D8=179.9930388\B9=1.10864019\A9
 =109.36531184\D9=57.34389597\B10=1.10863303\A10=109.37383575\D10=302.6
 5551807\B11=1.51758797\A11=113.74282526\D11=180.08157406\B12=1.1084673
 7\A12=109.3942229\D12=57.45295828\B13=1.1084773\A13=109.38800018\D13=3
 02.70206799\B14=1.51756486\A14=113.72364169\D14=180.01408825\B15=1.108
 4346\A15=109.39251892\D15=57.39712023\B16=1.10841973\A16=109.4019268\D
 16=302.64202473\B17=1.5175762\A17=113.71360348\D17=180.08047548\B18=1.
 10842421\A18=109.39602318\D18=57.45952366\B19=1.10844467\A19=109.39106
 709\D19=302.70597728\B20=1.51748783\A20=113.71291676\D20=180.04653881\
 B21=1.10841413\A21=109.39474746\D21=57.42762091\B22=1.10833041\A22=109
 .40547334\D22=302.66207471\B23=1.51731392\A23=113.71471016\D23=180.123
 17025\B24=1.10842663\A24=109.39377885\D24=57.49380805\B25=1.10864159\A
 25=109.40364109\D25=302.74257931\B26=1.52110089\A26=113.40963709\D26=1
 79.9708305\B27=1.10833933\A27=109.45020745\D27=57.65691778\B28=1.10708
 617\A28=109.59988963\D28=302.63638808\B29=1.49564958\A29=115.32258393\
 D29=184.71614063\B30=1.10750824\A30=110.24505312\D30=58.88357995\B31=1
 .10823758\A31=108.80428607\D31=303.62389776\B32=1.3354367\A32=126.2139
 2236\D32=213.40398474\B33=1.09786968\A33=121.44674933\B34=1.09451131\A
 34=121.89480257\B35=1.10346298\A35=113.15591402\D35=55.87025015\D33=30
 .\D34=210.\\Version=ES64L-G09RevD.01\State=1-A\HF=-470.9692303\RMSD=2.
 612e-09\RMSF=3.454e-03\Dipole=0.1684137,-0.089298,-0.0745414\Quadrupol
 e=-1.322091,1.7973855,-0.4752945,1.0939365,0.9328016,-0.3885165\PG=C01
  [X(C12H24)]\\@


 SIGN SEEN IN A RESTAURANT-
 WE RESERVE THE RIGHT TO SERVE REFUSE TO ANYONE.
 Job cpu time:       0 days  2 hours 31 minutes 46.4 seconds.
 File lengths (MBytes):  RWF=     40 Int=      0 D2E=      0 Chk=     17 Scr=      1
 Normal termination of Gaussian 09 at Tue Oct 17 17:07:36 2017.
8760.96user 345.50system 20:40.29elapsed 734%CPU (0avgtext+0avgdata 7501064maxresident)k
328560inputs+869672outputs (235major+218858805minor)pagefaults 0swaps
