 Entering Gaussian System, Link 0=g09
 Initial command:
 /soft/gaussian/g09.d01_itasca/g09/l1.exe "/scratch/jgoodpas/2034008.node1081.localdomain/Gau-6703.inp" -scrdir="/scratch/jgoodpas/2034008.node1081.localdomain/"
 Entering Link 1 = /soft/gaussian/g09.d01_itasca/g09/l1.exe PID=      6704.
  
 Copyright (c) 1988,1990,1992,1993,1995,1998,2003,2009,2013,
            Gaussian, Inc.  All Rights Reserved.
  
 This is part of the Gaussian(R) 09 program.  It is based on
 the Gaussian(R) 03 system (copyright 2003, Gaussian, Inc.),
 the Gaussian(R) 98 system (copyright 1998, Gaussian, Inc.),
 the Gaussian(R) 94 system (copyright 1995, Gaussian, Inc.),
 the Gaussian 92(TM) system (copyright 1992, Gaussian, Inc.),
 the Gaussian 90(TM) system (copyright 1990, Gaussian, Inc.),
 the Gaussian 88(TM) system (copyright 1988, Gaussian, Inc.),
 the Gaussian 86(TM) system (copyright 1986, Carnegie Mellon
 University), and the Gaussian 82(TM) system (copyright 1983,
 Carnegie Mellon University). Gaussian is a federally registered
 trademark of Gaussian, Inc.
  
 This software contains proprietary and confidential information,
 including trade secrets, belonging to Gaussian, Inc.
  
 This software is provided under written license and may be
 used, copied, transmitted, or stored only in accord with that
 written license.
  
 The following legend is applicable only to US Government
 contracts under FAR:
  
                    RESTRICTED RIGHTS LEGEND
  
 Use, reproduction and disclosure by the US Government is
 subject to restrictions as set forth in subparagraphs (a)
 and (c) of the Commercial Computer Software - Restricted
 Rights clause in FAR 52.227-19.
  
 Gaussian, Inc.
 340 Quinnipiac St., Bldg. 40, Wallingford CT 06492
  
  
 ---------------------------------------------------------------
 Warning -- This program may not be used in any manner that
 competes with the business of Gaussian, Inc. or will provide
 assistance to any competitor of Gaussian, Inc.  The licensee
 of this program is prohibited from giving any competitor of
 Gaussian, Inc. access to this program.  By using this program,
 the user acknowledges that Gaussian, Inc. is engaged in the
 business of creating and licensing software in the field of
 computational chemistry and represents and warrants to the
 licensee that it is not a competitor of Gaussian, Inc. and that
 it will not use this program in any manner prohibited above.
 ---------------------------------------------------------------
  

 Cite this work as:
 Gaussian 09, Revision D.01,
 M. J. Frisch, G. W. Trucks, H. B. Schlegel, G. E. Scuseria, 
 M. A. Robb, J. R. Cheeseman, G. Scalmani, V. Barone, B. Mennucci, 
 G. A. Petersson, H. Nakatsuji, M. Caricato, X. Li, H. P. Hratchian, 
 A. F. Izmaylov, J. Bloino, G. Zheng, J. L. Sonnenberg, M. Hada, 
 M. Ehara, K. Toyota, R. Fukuda, J. Hasegawa, M. Ishida, T. Nakajima, 
 Y. Honda, O. Kitao, H. Nakai, T. Vreven, J. A. Montgomery, Jr., 
 J. E. Peralta, F. Ogliaro, M. Bearpark, J. J. Heyd, E. Brothers, 
 K. N. Kudin, V. N. Staroverov, T. Keith, R. Kobayashi, J. Normand, 
 K. Raghavachari, A. Rendell, J. C. Burant, S. S. Iyengar, J. Tomasi, 
 M. Cossi, N. Rega, J. M. Millam, M. Klene, J. E. Knox, J. B. Cross, 
 V. Bakken, C. Adamo, J. Jaramillo, R. Gomperts, R. E. Stratmann, 
 O. Yazyev, A. J. Austin, R. Cammi, C. Pomelli, J. W. Ochterski, 
 R. L. Martin, K. Morokuma, V. G. Zakrzewski, G. A. Voth, 
 P. Salvador, J. J. Dannenberg, S. Dapprich, A. D. Daniels, 
 O. Farkas, J. B. Foresman, J. V. Ortiz, J. Cioslowski, 
 and D. J. Fox, Gaussian, Inc., Wallingford CT, 2013.
 
 ******************************************
 Gaussian 09:  ES64L-G09RevD.01 24-Apr-2013
                17-Oct-2017 
 ******************************************
 %LindaWorkers=ic-node0237
 %Mem=11800mb
 %NProcShared=8
 Will use up to    8 processors via shared memory.
 %chk=dimer.chk
 SetLPE:  input flags=" -workerwait 250000 -opt "Tsnet.Node.lindarsharg: ssh " "
 SetLPE:    new flags=" -workerwait 250000 -opt "Tsnet.Node.lindarsharg: ssh "  -nodelist 'ic-node0237'"
 Will use up to    1 processors via Linda.
 -------------------------------------------------------------
 # Opt=(Z-mat,maxcycle=200) m06/def2svp Integral=SuperFineGrid
 -------------------------------------------------------------
 1/6=200,10=7,14=-1,18=40,26=5,38=1/1,3;
 2/12=2,17=6,18=5,29=3,40=1/2;
 3/5=43,7=101,11=2,16=1,25=1,30=1,71=1,74=-54,75=-7/1,2,3;
 4//1;
 5/5=2,38=5/2;
 6/7=2,8=2,9=2,10=2,28=1/1;
 7/29=1/1,2,3,16;
 1/6=200,10=7,14=-1,18=40,26=5/3(2);
 2/29=3/2;
 99//99;
 2/29=3/2;
 3/5=43,7=101,11=2,16=1,25=1,30=1,71=1,74=-54,75=-7/1,2,3;
 4/5=5,16=3,69=1/1;
 5/5=2,38=5/2;
 7//1,2,3,16;
 1/6=200,14=-1,18=40,26=5/3(-5);
 2/29=3/2;
 6/7=2,8=2,9=2,10=2,19=2,28=1/1;
 99/9=1/99;
 ------
 C12H24
 ------
 Symbolic Z-matrix:
 Charge =  0 Multiplicity = 1
 C
 C                    1    B1
 H                    1    B2       2    A2
 H                    1    B3       2    A3       3    D3       0
 H                    1    B4       2    A4       3    D4       0
 C                    2    B5       1    A5       3    D5       0
 H                    2    B6       1    A6       3    D6       0
 H                    2    B7       1    A7       3    D7       0
 C                    6    B8       2    A8       1    D8       0
 H                    6    B9       2    A9       1    D9       0
 H                    6    B10      2    A10      1    D10      0
 C                    9    B11      6    A11      2    D11      0
 H                    9    B12      6    A12      2    D12      0
 H                    9    B13      6    A13      2    D13      0
 C                    12   B14      9    A14      6    D14      0
 H                    12   B15      9    A15      6    D15      0
 H                    12   B16      9    A16      6    D16      0
 C                    15   B17      12   A17      9    D17      0
 H                    15   B18      12   A18      9    D18      0
 H                    15   B19      12   A19      9    D19      0
 C                    18   B20      15   A20      12   D20      0
 H                    18   B21      15   A21      12   D21      0
 H                    18   B22      15   A22      12   D22      0
 C                    21   B23      18   A23      15   D23      0
 H                    21   B24      18   A24      15   D24      0
 H                    21   B25      18   A25      15   D25      0
 C                    24   B26      21   A26      18   D26      0
 H                    24   B27      21   A27      18   D27      0
 H                    24   B28      21   A28      18   D28      0
 C                    27   B29      24   A29      21   D29      0
 H                    27   B30      24   A30      21   D30      0
 H                    27   B31      24   A31      21   D31      0
 C                    30   B32      27   A32      24   D32      0
 H                    33   B33      30   A33      27   D33      0
 H                    33   B34      30   A34      27   D34      0
 H                    30   B35      27   A35      24   D35      0
       Variables:
  B1                    1.52037                  
  B2                    1.09449                  
  A2                  110.2615                   
  B3                    1.09469                  
  A3                  110.99941                  
  D3                  240.2622                   
  B4                    1.09468                  
  A4                  111.00291                  
  D4                  119.74267                  
  B5                    1.52846                  
  A5                  111.49348                  
  D5                  180.02355                  
  B6                    1.09622                  
  A6                  109.14402                  
  D6                   58.466                    
  B7                    1.09622                  
  A7                  109.14651                  
  D7                  301.57536                  
  B8                    1.52957                  
  A8                  111.33085                  
  D8                  180.06732                  
  B9                    1.09685                  
  A9                  109.56808                  
  D9                   58.69294                  
  B10                   1.09685                  
  A10                 109.56982                  
  D10                 301.43153                  
  B11                   1.52959                  
  A11                 111.32932                  
  D11                 180.0495                   
  B12                   1.09682                  
  A12                 109.56214                  
  D12                  58.69169                  
  B13                   1.09682                  
  A13                 109.57144                  
  D13                 301.40424                  
  B14                   1.52958                  
  A14                 111.33412                  
  D14                 180.11548                  
  B15                   1.09681                  
  A15                 109.56324                  
  D15                  58.75236                  
  B16                   1.09681                  
  A16                 109.56894                  
  D16                 301.4668                   
  B17                   1.52958                  
  A17                 111.32441                  
  D17                 180.06818                  
  B18                   1.09681                  
  A18                 109.56207                  
  D18                  58.71257                  
  B19                   1.09681                  
  A19                 109.57415                  
  D19                 301.42268                  
  B20                   1.5296                   
  A20                 111.33392                  
  D20                 180.12584                  
  B21                   1.09681                  
  A21                 109.56096                  
  D21                  58.76319                  
  B22                   1.09681                  
  A22                 109.57002                  
  D22                 301.47796                  
  B23                   1.53006                  
  A23                 111.33208                  
  D23                 180.06793                  
  B24                   1.09681                  
  A24                 109.55355                  
  D24                  58.71484                  
  B25                   1.09681                  
  A25                 109.57481                  
  D25                 301.41764                  
  B26                   1.52997                  
  A26                 111.27387                  
  D26                 180.07455                  
  B27                   1.09745                  
  A27                 109.45602                  
  D27                  58.51678                  
  B28                   1.09744                  
  A28                 109.4982                   
  D28                 301.54273                  
  B29                   1.50175                  
  A29                 111.29171                  
  D29                 180.59371                  
  B30                   1.0969                   
  A30                 109.65896                  
  D30                  57.82495                  
  B31                   1.09657                  
  A31                 109.82846                  
  D31                 300.6713                   
  B32                   1.33889                  
  A32                 124.10415                  
  D32                 241.95558                  
  B33                   1.08555                  
  A33                 121.75919                  
  B34                   1.08571                  
  A34                 120.7488                   
  B35                   1.08828                  
  A35                 116.90896                  
  D35                  62.58421                  
       Constants:
  D33                 135.                       
  D34                 315.                       
 

 GradGradGradGradGradGradGradGradGradGradGradGradGradGradGradGradGradGrad
 Berny optimization.
 Initialization pass.
                       ----------------------------
                       !    Initial Parameters    !
                       ! (Angstroms and Degrees)  !
 ----------------------                            ----------------------
 !      Name          Value   Derivative information (Atomic Units)     !
 ------------------------------------------------------------------------
 !       B1          1.5204   estimate D2E/DX2                          !
 !       B2          1.0945   estimate D2E/DX2                          !
 !       A2        110.2615   estimate D2E/DX2                          !
 !       B3          1.0947   estimate D2E/DX2                          !
 !       A3        110.9994   estimate D2E/DX2                          !
 !       D3        240.2622   estimate D2E/DX2                          !
 !       B4          1.0947   estimate D2E/DX2                          !
 !       A4        111.0029   estimate D2E/DX2                          !
 !       D4        119.7427   estimate D2E/DX2                          !
 !       B5          1.5285   estimate D2E/DX2                          !
 !       A5        111.4935   estimate D2E/DX2                          !
 !       D5        180.0236   estimate D2E/DX2                          !
 !       B6          1.0962   estimate D2E/DX2                          !
 !       A6        109.144    estimate D2E/DX2                          !
 !       D6         58.466    estimate D2E/DX2                          !
 !       B7          1.0962   estimate D2E/DX2                          !
 !       A7        109.1465   estimate D2E/DX2                          !
 !       D7        301.5754   estimate D2E/DX2                          !
 !       B8          1.5296   estimate D2E/DX2                          !
 !       A8        111.3308   estimate D2E/DX2                          !
 !       D8        180.0673   estimate D2E/DX2                          !
 !       B9          1.0969   estimate D2E/DX2                          !
 !       A9        109.5681   estimate D2E/DX2                          !
 !       D9         58.6929   estimate D2E/DX2                          !
 !       B10         1.0969   estimate D2E/DX2                          !
 !       A10       109.5698   estimate D2E/DX2                          !
 !       D10       301.4315   estimate D2E/DX2                          !
 !       B11         1.5296   estimate D2E/DX2                          !
 !       A11       111.3293   estimate D2E/DX2                          !
 !       D11       180.0495   estimate D2E/DX2                          !
 !       B12         1.0968   estimate D2E/DX2                          !
 !       A12       109.5621   estimate D2E/DX2                          !
 !       D12        58.6917   estimate D2E/DX2                          !
 !       B13         1.0968   estimate D2E/DX2                          !
 !       A13       109.5714   estimate D2E/DX2                          !
 !       D13       301.4042   estimate D2E/DX2                          !
 !       B14         1.5296   estimate D2E/DX2                          !
 !       A14       111.3341   estimate D2E/DX2                          !
 !       D14       180.1155   estimate D2E/DX2                          !
 !       B15         1.0968   estimate D2E/DX2                          !
 !       A15       109.5632   estimate D2E/DX2                          !
 !       D15        58.7524   estimate D2E/DX2                          !
 !       B16         1.0968   estimate D2E/DX2                          !
 !       A16       109.5689   estimate D2E/DX2                          !
 !       D16       301.4668   estimate D2E/DX2                          !
 !       B17         1.5296   estimate D2E/DX2                          !
 !       A17       111.3244   estimate D2E/DX2                          !
 !       D17       180.0682   estimate D2E/DX2                          !
 !       B18         1.0968   estimate D2E/DX2                          !
 !       A18       109.5621   estimate D2E/DX2                          !
 !       D18        58.7126   estimate D2E/DX2                          !
 !       B19         1.0968   estimate D2E/DX2                          !
 !       A19       109.5742   estimate D2E/DX2                          !
 !       D19       301.4227   estimate D2E/DX2                          !
 !       B20         1.5296   estimate D2E/DX2                          !
 !       A20       111.3339   estimate D2E/DX2                          !
 !       D20       180.1258   estimate D2E/DX2                          !
 !       B21         1.0968   estimate D2E/DX2                          !
 !       A21       109.561    estimate D2E/DX2                          !
 !       D21        58.7632   estimate D2E/DX2                          !
 !       B22         1.0968   estimate D2E/DX2                          !
 !       A22       109.57     estimate D2E/DX2                          !
 !       D22       301.478    estimate D2E/DX2                          !
 !       B23         1.5301   estimate D2E/DX2                          !
 !       A23       111.3321   estimate D2E/DX2                          !
 !       D23       180.0679   estimate D2E/DX2                          !
 !       B24         1.0968   estimate D2E/DX2                          !
 !       A24       109.5536   estimate D2E/DX2                          !
 !       D24        58.7148   estimate D2E/DX2                          !
 !       B25         1.0968   estimate D2E/DX2                          !
 !       A25       109.5748   estimate D2E/DX2                          !
 !       D25       301.4176   estimate D2E/DX2                          !
 !       B26         1.53     estimate D2E/DX2                          !
 !       A26       111.2739   estimate D2E/DX2                          !
 !       D26       180.0745   estimate D2E/DX2                          !
 !       B27         1.0975   estimate D2E/DX2                          !
 !       A27       109.456    estimate D2E/DX2                          !
 !       D27        58.5168   estimate D2E/DX2                          !
 !       B28         1.0974   estimate D2E/DX2                          !
 !       A28       109.4982   estimate D2E/DX2                          !
 !       D28       301.5427   estimate D2E/DX2                          !
 !       B29         1.5018   estimate D2E/DX2                          !
 !       A29       111.2917   estimate D2E/DX2                          !
 !       D29       180.5937   estimate D2E/DX2                          !
 !       B30         1.0969   estimate D2E/DX2                          !
 !       A30       109.659    estimate D2E/DX2                          !
 !       D30        57.8249   estimate D2E/DX2                          !
 !       B31         1.0966   estimate D2E/DX2                          !
 !       A31       109.8285   estimate D2E/DX2                          !
 !       D31       300.6713   estimate D2E/DX2                          !
 !       B32         1.3389   estimate D2E/DX2                          !
 !       A32       124.1042   estimate D2E/DX2                          !
 !       D32       241.9556   estimate D2E/DX2                          !
 !       B33         1.0856   estimate D2E/DX2                          !
 !       A33       121.7592   estimate D2E/DX2                          !
 !       B34         1.0857   estimate D2E/DX2                          !
 !       A34       120.7488   estimate D2E/DX2                          !
 !       B35         1.0883   estimate D2E/DX2                          !
 !       A35       116.909    estimate D2E/DX2                          !
 !       D35        62.5842   estimate D2E/DX2                          !
 !       D33       135.0      Frozen                                    !
 !       D34       315.0      Frozen                                    !
 ------------------------------------------------------------------------
 Trust Radius=3.00D-01 FncErr=1.00D-07 GrdErr=1.00D-07
 Number of steps in this run=    200 maximum allowed number of steps=    204.
 GradGradGradGradGradGradGradGradGradGradGradGradGradGradGradGradGradGrad

 ---------------------------------------------------------------------------------------------------
                            Z-MATRIX (ANGSTROMS AND DEGREES)
   CD    Cent   Atom    N1       Length/X        N2       Alpha/Y        N3        Beta/Z          J
 ---------------------------------------------------------------------------------------------------
      1      1  C 
      2      2  C        1   1.520370(     1)
      3      3  H        1   1.094490(     2)      2  110.262(    36)
      4      4  H        1   1.094690(     3)      2  110.999(    37)      3  240.262(    70)      0
      5      5  H        1   1.094680(     4)      2  111.003(    38)      3  119.743(    71)      0
      6      6  C        2   1.528460(     5)      1  111.493(    39)      3  180.024(    72)      0
      7      7  H        2   1.096220(     6)      1  109.144(    40)      3   58.466(    73)      0
      8      8  H        2   1.096220(     7)      1  109.147(    41)      3  301.575(    74)      0
      9      9  C        6   1.529570(     8)      2  111.331(    42)      1  180.067(    75)      0
     10     10  H        6   1.096850(     9)      2  109.568(    43)      1   58.693(    76)      0
     11     11  H        6   1.096850(    10)      2  109.570(    44)      1  301.432(    77)      0
     12     12  C        9   1.529590(    11)      6  111.329(    45)      2  180.050(    78)      0
     13     13  H        9   1.096820(    12)      6  109.562(    46)      2   58.692(    79)      0
     14     14  H        9   1.096820(    13)      6  109.571(    47)      2  301.404(    80)      0
     15     15  C       12   1.529580(    14)      9  111.334(    48)      6  180.115(    81)      0
     16     16  H       12   1.096810(    15)      9  109.563(    49)      6   58.752(    82)      0
     17     17  H       12   1.096810(    16)      9  109.569(    50)      6  301.467(    83)      0
     18     18  C       15   1.529580(    17)     12  111.324(    51)      9  180.068(    84)      0
     19     19  H       15   1.096810(    18)     12  109.562(    52)      9   58.713(    85)      0
     20     20  H       15   1.096810(    19)     12  109.574(    53)      9  301.423(    86)      0
     21     21  C       18   1.529600(    20)     15  111.334(    54)     12  180.126(    87)      0
     22     22  H       18   1.096810(    21)     15  109.561(    55)     12   58.763(    88)      0
     23     23  H       18   1.096810(    22)     15  109.570(    56)     12  301.478(    89)      0
     24     24  C       21   1.530060(    23)     18  111.332(    57)     15  180.068(    90)      0
     25     25  H       21   1.096810(    24)     18  109.554(    58)     15   58.715(    91)      0
     26     26  H       21   1.096810(    25)     18  109.575(    59)     15  301.418(    92)      0
     27     27  C       24   1.529970(    26)     21  111.274(    60)     18  180.075(    93)      0
     28     28  H       24   1.097450(    27)     21  109.456(    61)     18   58.517(    94)      0
     29     29  H       24   1.097440(    28)     21  109.498(    62)     18  301.543(    95)      0
     30     30  C       27   1.501750(    29)     24  111.292(    63)     21  180.594(    96)      0
     31     31  H       27   1.096900(    30)     24  109.659(    64)     21   57.825(    97)      0
     32     32  H       27   1.096570(    31)     24  109.828(    65)     21  300.671(    98)      0
     33     33  C       30   1.338890(    32)     27  124.104(    66)     24  241.956(    99)      0
     34     34  H       33   1.085550(    33)     30  121.759(    67)     27  135.000(   100)      0
     35     35  H       33   1.085710(    34)     30  120.749(    68)     27  315.000(   101)      0
     36     36  H       30   1.088280(    35)     27  116.909(    69)     24   62.584(   102)      0
 ---------------------------------------------------------------------------------------------------
                         Z-Matrix orientation:                         
 ---------------------------------------------------------------------
 Center     Atomic      Atomic             Coordinates (Angstroms)
 Number     Number       Type             X           Y           Z
 ---------------------------------------------------------------------
      1          6           0        0.000000    0.000000    0.000000
      2          6           0        0.000000    0.000000    1.520370
      3          1           0        1.026765    0.000000   -0.379028
      4          1           0       -0.506937    0.887394   -0.392291
      5          1           0       -0.506996   -0.887322   -0.392350
      6          6           0       -1.422170   -0.000585    2.080391
      7          1           0        0.541621    0.882669    1.879869
      8          1           0        0.542250   -0.882265    1.879914
      9          6           0       -1.417829    0.001091    3.609954
     10          1           0       -1.960390   -0.883823    1.715305
     11          1           0       -1.961845    0.881033    1.713538
     12          6           0       -2.841064   -0.000725    4.170352
     13          1           0       -0.880476    0.884957    3.974709
     14          1           0       -0.877544   -0.880117    3.976802
     15          6           0       -2.836857    0.003823    5.699919
     16          1           0       -3.377699   -0.885606    3.807035
     17          1           0       -3.382035    0.879433    3.802024
     18          6           0       -4.260172    0.000310    6.260077
     19          1           0       -2.301279    0.889417    6.063059
     20          1           0       -2.294922   -0.875633    6.068507
     21          6           0       -4.256232    0.007986    7.789653
     22          1           0       -4.794941   -0.886396    5.898461
     23          1           0       -4.802856    0.878620    5.889863
     24          6           0       -5.680003    0.002782    8.349950
     25          1           0       -3.722490    0.895453    8.150919
     26          1           0       -3.712685   -0.869677    8.160135
     27          6           0       -5.674519    0.012323    9.879880
     28          1           0       -6.213070   -0.884521    7.985355
     29          1           0       -6.223979    0.879534    7.976089
     30          6           0       -7.071612   -0.007278   10.430335
     31          1           0       -5.128482    0.892261   10.241464
     32          1           0       -5.141577   -0.869376   10.255440
     33          6           0       -7.595135    0.967368   11.184400
     34          1           0       -8.595146    1.351315   11.008385
     35          1           0       -7.027119    1.403789   12.000280
     36          1           0       -7.679357   -0.880293   10.200458
 ---------------------------------------------------------------------
                    Distance matrix (angstroms):
                    1          2          3          4          5
     1  C    0.000000
     2  C    1.520370   0.000000
     3  H    1.094490   2.159157   0.000000
     4  H    1.094690   2.168577   1.771972   0.000000
     5  H    1.094680   2.168613   1.771988   1.774717   0.000000
     6  C    2.520038   1.528460   3.470738   2.782142   2.781779
     7  H    2.146244   1.096220   2.473274   2.502440   3.065199
     8  H    2.146276   1.096220   2.473047   3.065192   2.502823
     9  C    3.878402   2.525193   4.678463   4.199193   4.199682
    10  H    2.750735   2.159230   3.753727   3.113149   2.560191
    11  H    2.749776   2.159252   3.753244   2.559554   3.111018
    12  C    5.046135   3.885106   5.971344   5.201405   5.201170
    13  H    4.166137   2.753574   4.834847   4.382948   4.727755
    14  H    4.166491   2.752953   4.834693   4.727624   4.384843
    15  C    6.366856   5.051376   7.202859   6.582116   6.583171
    16  H    5.165913   4.173965   6.140580   5.386942   5.086823
    17  H    5.164005   4.173428   6.139390   5.085128   5.383311
    18  C    7.572162   6.372903   8.487015   7.689454   7.689539
    19  H    6.545810   5.169427   7.305301   6.700091   6.931707
    20  H    6.546768   5.169037   7.305548   6.931599   6.703692
    21  C    8.876613   7.577564   9.728179   9.042941   9.044530
    22  H    7.653038   6.553231   8.607254   7.817088   7.613197
    23  H    7.650482   6.552241   8.605547   7.610549   7.812756
    24  C   10.098718   8.882882  11.007988  10.196564  10.197063
    25  H    9.005346   7.656563   9.803941   9.128324   9.300814
    26  H    9.007118   7.656817   9.804898   9.300974   9.133551
    27  C   11.393522  10.103550  12.253675  11.532006  11.533922
    28  H   10.156304   9.010030  11.097769  10.290024  10.136332
    29  H   10.155269   9.010427  11.097515  10.134812  10.287684
    30  C   12.601572  11.375202  13.506520  12.689548  12.688545
    31  H   11.488475  10.156522  12.307642  11.594631  11.730433
    32  H   11.505028  10.173154  12.324616  11.744799  11.612713
    33  C   13.554065  12.329451  14.456342  13.574562  13.700465
    34  H   14.031647  12.873423  14.969315  13.986056  14.156498
    35  H   13.977043  12.695650  14.835192  14.012682  14.189379
    36  H   12.798312  11.622882  13.729421  12.914127  12.792592
                    6          7          8          9         10
     6  C    0.000000
     7  H    2.162596   0.000000
     8  H    2.162521   1.764935   0.000000
     9  C    1.529570   2.758590   2.759577   0.000000
    10  H    1.096850   3.067188   2.508049   2.160357   0.000000
    11  H    1.096850   2.508986   3.067147   2.160241   1.764858
    12  C    2.526103   4.179624   4.179717   1.529590   2.753671
    13  H    2.160106   2.531941   3.087943   1.096820   3.065894
    14  H    2.160225   3.085219   2.532343   1.096820   2.507378
    15  C    3.886174   5.174869   5.176481   2.526184   4.175316
    16  H    2.754752   4.711883   4.368044   2.160130   2.526678
    17  H    2.753093   4.369184   4.711486   2.160203   3.079698
    18  C    5.052132   6.559116   6.559576   3.886138   5.169685
    19  H    4.174516   5.057787   5.359405   2.754511   4.707818
    20  H    4.175222   5.355585   5.059042   2.753620   4.366045
    21  C    6.373983   7.662246   7.664398   5.052372   6.554687
    22  H    5.170871   6.910685   6.680894   4.174899   5.053066
    23  H    5.168570   6.681580   6.910178   4.174500   5.349089
    24  C    7.578689   9.019133   9.020039   6.374456   7.657682
    25  H    6.553295   7.583462   7.789339   5.170272   6.905647
    26  H    6.554775   7.785345   7.585896   5.169986   6.678816
    27  C    8.883393  10.168485  10.170937   7.578358   9.014328
    28  H    7.655238   9.275008   9.105535   6.551548   7.576200
    29  H    7.654491   9.106989   9.276268   6.552394   7.777212
    30  C   10.081558  11.483196  11.482430   8.859059  10.141236
    31  H    9.007611  10.102794  10.257762   7.651148   9.267507
    32  H    9.023315  10.272224  10.122030   7.667235   9.113400
    33  C   11.041984  12.360756  12.498466   9.821662  11.173228
    34  H   11.532055  12.924007  13.107627  10.395853  11.635169
    35  H   11.480066  12.648324  12.843021  10.189665  11.691263
    36  H   10.288916  11.828979  11.697277   9.133363  10.232518
                   11         12         13         14         15
    11  H    0.000000
    12  C    2.754352   0.000000
    13  H    2.506446   2.160234   0.000000
    14  H    3.065897   2.160139   1.765078   0.000000
    15  C    4.174491   1.529580   2.753212   2.754885   0.000000
    16  H    3.083567   1.096810   3.065801   2.505919   2.160233
    17  H    2.525611   1.096810   2.507518   3.065785   2.160074
    18  C    5.170010   2.526029   4.174668   4.175006   1.529580
    19  H    4.362754   2.160107   2.525848   3.083949   1.096810
    20  H    4.707714   2.160261   3.079663   2.526699   1.096810
    21  C    6.553289   3.886145   5.169004   5.171276   2.526189
    22  H    5.353860   2.754707   4.707605   4.363349   2.160092
    23  H    5.051043   2.752925   4.364965   4.707550   2.160208
    24  C    7.657544   5.052586   6.554115   6.554963   3.886662
    25  H    6.673826   4.174322   5.051523   5.354402   2.754406
    26  H    6.905725   4.175306   5.349574   5.053554   2.753678
    27  C    9.012644   6.373959   7.656068   7.658573   5.052175
    28  H    7.779832   5.167763   6.903107   6.673556   4.172671
    29  H    7.575310   5.167456   6.675634   6.904711   4.173777
    30  C   10.143045   7.555459   8.988957   8.987569   6.349024
    31  H    9.096881   6.548902   7.570854   7.775461   5.163962
    32  H    9.281094   6.563171   7.789881   7.589689   5.179477
    33  C   11.019920   8.528498   9.852567  10.024405   7.324559
    34  H   11.428737   9.038594  10.450178  10.676321   7.946914
    35  H   11.478124   8.989076  10.122262  10.363865   7.694982
    36  H   10.383642   7.781061   9.386205   9.219466   6.669807
                   16         17         18         19         20
    16  H    0.000000
    17  H    1.765051   0.000000
    18  C    2.753366   2.754271   0.000000
    19  H    3.065784   2.506075   2.160229   0.000000
    20  H    2.507341   3.065781   2.160135   1.765070   0.000000
    21  C    4.175114   4.174306   1.529600   2.753160   2.754971
    22  H    2.526388   3.083748   1.096810   3.065771   2.505818
    23  H    3.079243   2.525432   1.096810   2.507588   3.065787
    24  C    5.169905   5.170378   2.526558   4.175137   4.175568
    25  H    4.707482   4.362231   2.160015   2.525676   3.084013
    26  H    4.366000   4.707638   2.160287   3.079644   2.526855
    27  C    6.554472   6.553449   3.886321   5.168768   5.170755
    28  H    5.049524   5.350379   2.751966   4.705761   4.361911
    29  H    5.347714   5.049700   2.752139   4.364327   4.707119
    30  C    7.634432   7.637653   5.029443   6.529413   6.526588
    31  H    6.901300   6.672079   4.171449   5.045013   5.344912
    32  H    6.685317   6.913819   4.182840   5.360662   5.062992
    33  C    8.697460   8.500437   6.025457   7.366079   7.593502
    34  H    9.169788   8.906786   6.569904   8.017628   8.309905
    35  H    9.256828   8.987380   6.525004   7.605835   7.923092
    36  H    7.705852   7.905921   5.290831   7.012394   6.787134
                   21         22         23         24         25
    21  C    0.000000
    22  H    2.160262   0.000000
    23  H    2.160093   1.765055   0.000000
    24  C    1.530060   2.753865   2.754724   0.000000
    25  H    1.096810   3.065731   2.505963   2.160632   0.000000
    26  H    1.096810   2.507335   3.065803   2.160452   1.765182
    27  C    2.525986   4.175291   4.174985   1.529970   2.753114
    28  H    2.159649   2.523137   3.080334   1.097450   3.065731
    29  H    2.160181   3.078506   2.524268   1.097440   2.507641
    30  C    3.860025   5.147228   5.152471   2.502934   4.150575
    31  H    2.748480   4.704950   4.363789   2.161753   2.519365
    32  H    2.762916   4.370779   4.714709   2.163667   3.091510
    33  C    4.857262   6.262482   5.986387   3.554190   4.919812
    34  H    5.566951   6.749832   6.387814   4.169398   5.667071
    35  H    5.230245   6.889105   6.523829   4.135511   5.098681
    36  H    4.280048   5.179486   5.472593   2.863847   4.796945
                   26         27         28         29         30
    26  H    0.000000
    27  C    2.753949   0.000000
    28  H    2.506530   2.164161   0.000000
    29  H    3.065976   2.162957   1.764112   0.000000
    30  C    4.144867   1.501750   2.735795   2.743764   0.000000
    31  H    3.072595   1.096900   3.069742   2.516387   2.149557
    32  H    2.536145   1.096570   2.510302   3.070134   2.121046
    33  C    5.253030   2.510508   3.946326   3.490136   1.338890
    34  H    6.073200   3.405361   4.451062   3.878122   2.121573
    35  H    5.558851   2.874335   4.692405   4.136906   2.111355
    36  H    4.460663   2.217862   2.656445   3.187936   1.088280
                   31         32         33         34         35
    31  H    0.000000
    32  H    1.761741   0.000000
    33  C    2.641807   3.202584   0.000000
    34  H    3.580036   4.174390   1.085550   0.000000
    35  H    2.638165   3.430308   1.085710   1.856157   0.000000
    36  H    3.106541   2.538400   2.095015   2.543912   2.980236
                   36
    36  H    0.000000
 Stoichiometry    C12H24
 Framework group  C1[X(C12H24)]
 Deg. of freedom   102
 Full point group                 C1      NOp   1
 Largest Abelian subgroup         C1      NOp   1
 Largest concise Abelian subgroup C1      NOp   1
                         Standard orientation:                         
 ---------------------------------------------------------------------
 Center     Atomic      Atomic             Coordinates (Angstroms)
 Number     Number       Type             X           Y           Z
 ---------------------------------------------------------------------
      1          6           0       -6.772744   -0.425229    0.081239
      2          6           0       -5.523266    0.439842    0.125759
      3          1           0       -7.668420    0.197879    0.167315
      4          1           0       -6.780156   -1.146361    0.904804
      5          1           0       -6.833286   -0.978842   -0.861189
      6          6           0       -4.253896   -0.403236    0.006981
      7          1           0       -5.509562    1.003488    1.065873
      8          1           0       -5.562705    1.170705   -0.690319
      9          6           0       -2.999283    0.470454    0.053848
     10          1           0       -4.274144   -0.967229   -0.933541
     11          1           0       -4.221949   -1.136093    0.822444
     12          6           0       -1.729034   -0.373163   -0.066246
     13          1           0       -2.978794    1.033491    0.994902
     14          1           0       -3.031569    1.203768   -0.761150
     15          6           0       -0.474255    0.500148   -0.016534
     16          1           0       -1.748779   -0.934700   -1.008201
     17          1           0       -1.697605   -1.107780    0.747599
     18          6           0        0.795792   -0.343511   -0.138330
     19          1           0       -0.454032    1.060653    0.926025
     20          1           0       -0.505997    1.235634   -0.829581
     21          6           0        2.050824    0.529292   -0.085531
     22          1           0        0.776328   -0.902383   -1.081875
     23          1           0        0.826590   -1.080426    0.673458
     24          6           0        3.321193   -0.314501   -0.209049
     25          1           0        2.070608    1.087054    0.858664
     26          1           0        2.019775    1.267003   -0.896586
     27          6           0        4.575693    0.559589   -0.154236
     28          1           0        3.298295   -0.873621   -1.153113
     29          1           0        3.349683   -1.054399    0.600960
     30          6           0        5.822365   -0.266651   -0.289845
     31          1           0        4.588518    1.128287    0.783638
     32          1           0        4.554730    1.291908   -0.970162
     33          6           0        6.769105   -0.357310    0.652541
     34          1           0        7.204903   -1.310634    0.934803
     35          1           0        7.129502    0.529717    1.164463
     36          1           0        5.953098   -0.811472   -1.222814
 ---------------------------------------------------------------------
 Rotational constants (GHZ):      6.3296169      0.1582197      0.1569805
 Standard basis: def2SVP (5D, 7F)
 There are   300 symmetry adapted cartesian basis functions of A   symmetry.
 There are   288 symmetry adapted basis functions of A   symmetry.
   288 basis functions,   468 primitive gaussians,   300 cartesian basis functions
    48 alpha electrons       48 beta electrons
       nuclear repulsion energy       654.6736667148 Hartrees.
 NAtoms=   36 NActive=   36 NUniq=   36 SFac= 1.00D+00 NAtFMM=   60 NAOKFM=F Big=F
 Integral buffers will be    131072 words long.
 Raffenetti 2 integral format.
 Two-electron integral symmetry is turned on.
 One-electron integrals computed using PRISM.
   1 Symmetry operations used in ECPInt.
 ECPInt:  NShTT=   10440 NPrTT=   35208 LenC2=    8755 LenP2D=   21882.
 LDataN:  DoStor=T MaxTD1= 4 Len=   56
 NBasis=   288 RedAO= T EigKep=  7.64D-04  NBF=   288
 NBsUse=   288 1.00D-06 EigRej= -1.00D+00 NBFU=   288
 ExpMin= 1.22D-01 ExpMax= 1.24D+03 ExpMxC= 1.86D+02 IAcc=3 IRadAn=         7 AccDes= 0.00D+00
 Harris functional with IExCor= 1009 and IRadAn=       7 diagonalized for initial guess.
 HarFok:  IExCor= 1009 AccDes= 0.00D+00 IRadAn=         7 IDoV= 1 UseB2=F ITyADJ=14
 ICtDFT=  3500011 ScaDFX=  1.000000  1.000000  1.000000  1.000000
 FoFCou: FMM=F IPFlag=           0 FMFlag=      100000 FMFlg1=           0
         NFxFlg=           0 DoJE=T BraDBF=F KetDBF=T FulRan=T
         wScrn=  0.000000 ICntrl=     500 IOpCl=  0 I1Cent=   200000004 NGrid=           0
         NMat0=    1 NMatS0=      1 NMatT0=    0 NMatD0=    1 NMtDS0=    0 NMtDT0=    0
 Petite list used in FoFCou.
 Keep R1 ints in memory in canonical form, NReq=879895090.
 Requested convergence on RMS density matrix=1.00D-08 within 128 cycles.
 Requested convergence on MAX density matrix=1.00D-06.
 Requested convergence on             energy=1.00D-06.
 No special actions if energy rises.
 Integral accuracy reduced to 1.0D-05 until final iterations.
 Initial convergence to 1.0D-05 achieved.  Increase integral accuracy.
 SCF Done:  E(RM06) =  -470.935764956     A.U. after   13 cycles
            NFock= 13  Conv=0.34D-08     -V/T= 2.0126

 **********************************************************************

            Population analysis using the SCF density.

 **********************************************************************

 Orbital symmetries:
       Occupied  (A) (A) (A) (A) (A) (A) (A) (A) (A) (A) (A) (A)
                 (A) (A) (A) (A) (A) (A) (A) (A) (A) (A) (A) (A)
                 (A) (A) (A) (A) (A) (A) (A) (A) (A) (A) (A) (A)
                 (A) (A) (A) (A) (A) (A) (A) (A) (A) (A) (A) (A)
       Virtual   (A) (A) (A) (A) (A) (A) (A) (A) (A) (A) (A) (A)
                 (A) (A) (A) (A) (A) (A) (A) (A) (A) (A) (A) (A)
                 (A) (A) (A) (A) (A) (A) (A) (A) (A) (A) (A) (A)
                 (A) (A) (A) (A) (A) (A) (A) (A) (A) (A) (A) (A)
                 (A) (A) (A) (A) (A) (A) (A) (A) (A) (A) (A) (A)
                 (A) (A) (A) (A) (A) (A) (A) (A) (A) (A) (A) (A)
                 (A) (A) (A) (A) (A) (A) (A) (A) (A) (A) (A) (A)
                 (A) (A) (A) (A) (A) (A) (A) (A) (A) (A) (A) (A)
                 (A) (A) (A) (A) (A) (A) (A) (A) (A) (A) (A) (A)
                 (A) (A) (A) (A) (A) (A) (A) (A) (A) (A) (A) (A)
                 (A) (A) (A) (A) (A) (A) (A) (A) (A) (A) (A) (A)
                 (A) (A) (A) (A) (A) (A) (A) (A) (A) (A) (A) (A)
                 (A) (A) (A) (A) (A) (A) (A) (A) (A) (A) (A) (A)
                 (A) (A) (A) (A) (A) (A) (A) (A) (A) (A) (A) (A)
                 (A) (A) (A) (A) (A) (A) (A) (A) (A) (A) (A) (A)
                 (A) (A) (A) (A) (A) (A) (A) (A) (A) (A) (A) (A)
                 (A) (A) (A) (A) (A) (A) (A) (A) (A) (A) (A) (A)
                 (A) (A) (A) (A) (A) (A) (A) (A) (A) (A) (A) (A)
                 (A) (A) (A) (A) (A) (A) (A) (A) (A) (A) (A) (A)
                 (A) (A) (A) (A) (A) (A) (A) (A) (A) (A) (A) (A)
 The electronic state is 1-A.
 Alpha  occ. eigenvalues --  -10.24963 -10.24458 -10.24446 -10.24061 -10.23887
 Alpha  occ. eigenvalues --  -10.23783 -10.23759 -10.23717 -10.23674 -10.23658
 Alpha  occ. eigenvalues --  -10.23511 -10.23215  -0.82278  -0.81074  -0.79069
 Alpha  occ. eigenvalues --   -0.76376  -0.73096  -0.69251  -0.64929  -0.60649
 Alpha  occ. eigenvalues --   -0.58471  -0.57730  -0.57532  -0.55219  -0.49767
 Alpha  occ. eigenvalues --   -0.48494  -0.46737  -0.45395  -0.44651  -0.43848
 Alpha  occ. eigenvalues --   -0.43024  -0.42655  -0.41045  -0.40333  -0.39145
 Alpha  occ. eigenvalues --   -0.38385  -0.37512  -0.36227  -0.35361  -0.34653
 Alpha  occ. eigenvalues --   -0.34344  -0.34101  -0.33630  -0.33415  -0.33108
 Alpha  occ. eigenvalues --   -0.32948  -0.30372  -0.23008
 Alpha virt. eigenvalues --   -0.01280   0.06294   0.07045   0.07949   0.08249
 Alpha virt. eigenvalues --    0.08743   0.09312   0.09761   0.10253   0.10988
 Alpha virt. eigenvalues --    0.11390   0.12657   0.13418   0.14035   0.14775
 Alpha virt. eigenvalues --    0.15337   0.15867   0.16187   0.16207   0.16839
 Alpha virt. eigenvalues --    0.17132   0.18220   0.18603   0.19539   0.19691
 Alpha virt. eigenvalues --    0.20465   0.20736   0.22651   0.23166   0.23533
 Alpha virt. eigenvalues --    0.26066   0.26547   0.28194   0.32400   0.33079
 Alpha virt. eigenvalues --    0.34750   0.38561   0.40467   0.41469   0.42331
 Alpha virt. eigenvalues --    0.42785   0.43279   0.43619   0.43777   0.44295
 Alpha virt. eigenvalues --    0.46433   0.47632   0.48504   0.49305   0.50425
 Alpha virt. eigenvalues --    0.51544   0.52519   0.54506   0.54992   0.58078
 Alpha virt. eigenvalues --    0.58795   0.61203   0.61379   0.61813   0.61980
 Alpha virt. eigenvalues --    0.62223   0.62624   0.62906   0.63108   0.63307
 Alpha virt. eigenvalues --    0.64210   0.64378   0.64953   0.65205   0.65636
 Alpha virt. eigenvalues --    0.66096   0.66190   0.66434   0.66780   0.67100
 Alpha virt. eigenvalues --    0.67177   0.67545   0.67901   0.68709   0.68965
 Alpha virt. eigenvalues --    0.69292   0.70062   0.70181   0.70860   0.71295
 Alpha virt. eigenvalues --    0.71634   0.71967   0.72038   0.72872   0.73126
 Alpha virt. eigenvalues --    0.76244   0.81931   0.82353   0.85674   0.86094
 Alpha virt. eigenvalues --    0.92146   0.94773   0.98341   0.98896   1.00631
 Alpha virt. eigenvalues --    1.01366   1.01995   1.02465   1.02917   1.03581
 Alpha virt. eigenvalues --    1.05469   1.07458   1.09398   1.17628   1.18813
 Alpha virt. eigenvalues --    1.22996   1.23906   1.26888   1.31463   1.31747
 Alpha virt. eigenvalues --    1.32763   1.33670   1.34302   1.35702   1.35901
 Alpha virt. eigenvalues --    1.36915   1.37705   1.37928   1.40159   1.44045
 Alpha virt. eigenvalues --    1.50957   1.52638   1.57445   1.58947   1.62804
 Alpha virt. eigenvalues --    1.65410   1.65809   1.66394   1.66770   1.68918
 Alpha virt. eigenvalues --    1.71026   1.71521   1.73089   1.74024   1.74047
 Alpha virt. eigenvalues --    1.74694   1.75289   1.76543   1.76956   1.77747
 Alpha virt. eigenvalues --    1.78214   1.79097   1.79529   1.79899   1.80245
 Alpha virt. eigenvalues --    1.80394   1.80993   1.81601   1.82075   1.82564
 Alpha virt. eigenvalues --    1.82913   1.83932   1.84279   1.85167   1.85720
 Alpha virt. eigenvalues --    1.86978   1.88126   1.89263   1.90737   1.90946
 Alpha virt. eigenvalues --    1.91482   1.92291   1.92968   1.93262   1.94638
 Alpha virt. eigenvalues --    1.96308   1.99139   1.99541   2.00992   2.03960
 Alpha virt. eigenvalues --    2.05806   2.07102   2.09702   2.09945   2.12656
 Alpha virt. eigenvalues --    2.14132   2.15645   2.19964   2.21925   2.24171
 Alpha virt. eigenvalues --    2.26127   2.29513   2.31362   2.35230   2.36187
 Alpha virt. eigenvalues --    2.37277   2.39471   2.40645   2.41315   2.41742
 Alpha virt. eigenvalues --    2.42438   2.43280   2.44260   2.46254   2.46655
 Alpha virt. eigenvalues --    2.48633   2.50827   2.51125   2.52995   2.55308
 Alpha virt. eigenvalues --    2.56697   2.57434   2.57545   2.58990   2.59750
 Alpha virt. eigenvalues --    2.60553   2.61570   2.64478   2.65278   2.71786
 Alpha virt. eigenvalues --    2.74873   2.76211   2.79160   2.80978   2.82136
 Alpha virt. eigenvalues --    2.83063   2.83600   2.85158   2.86110   2.87437
 Alpha virt. eigenvalues --    2.90249   2.91208   2.92586   2.93433   2.95710
 Alpha virt. eigenvalues --    2.96741   2.97605   2.99763   2.99938   3.01109
 Alpha virt. eigenvalues --    3.03492   3.04515   3.05309   3.07333   3.14305
          Condensed to atoms (all electrons):
               1          2          3          4          5          6
     1  C    4.571283   0.421829   0.377991   0.394085   0.394042  -0.058843
     2  C    0.421829   4.673887  -0.014019  -0.023347  -0.023343   0.398643
     3  H    0.377991  -0.014019   0.656364  -0.024827  -0.024832   0.008285
     4  H    0.394085  -0.023347  -0.024827   0.653143  -0.027909  -0.008671
     5  H    0.394042  -0.023343  -0.024832  -0.027909   0.653247  -0.008670
     6  C   -0.058843   0.398643   0.008285  -0.008671  -0.008670   4.751935
     7  H   -0.023827   0.375270  -0.006692  -0.010176   0.008802  -0.022828
     8  H   -0.023797   0.375197  -0.006704   0.008801  -0.010165  -0.022769
     9  C    0.009391  -0.046186  -0.000555   0.000467   0.000470   0.364347
    10  H   -0.004392  -0.027287  -0.000047  -0.001941   0.007552   0.374695
    11  H   -0.004374  -0.027345  -0.000045   0.007554  -0.001947   0.374831
    12  C   -0.000510   0.008369   0.000016  -0.000008  -0.000008  -0.043104
    13  H    0.000293  -0.006634   0.000008  -0.000053   0.000024  -0.022316
    14  H    0.000298  -0.006623   0.000008   0.000024  -0.000053  -0.022295
    15  C    0.000009  -0.000440   0.000000   0.000000   0.000000   0.008163
    16  H    0.000007   0.000318   0.000000   0.000004  -0.000010  -0.007035
    17  H    0.000007   0.000325   0.000000  -0.000010   0.000004  -0.007014
    18  C    0.000000   0.000008   0.000000   0.000000   0.000000  -0.000458
    19  H    0.000000   0.000003   0.000000   0.000000   0.000000   0.000375
    20  H    0.000000   0.000003   0.000000   0.000000   0.000000   0.000384
    21  C    0.000000   0.000000   0.000000   0.000000   0.000000   0.000008
    22  H    0.000000   0.000000   0.000000   0.000000   0.000000   0.000003
    23  H    0.000000   0.000000   0.000000   0.000000   0.000000   0.000003
    24  C    0.000000   0.000000   0.000000   0.000000   0.000000   0.000000
    25  H    0.000000   0.000000   0.000000   0.000000   0.000000   0.000000
    26  H    0.000000   0.000000   0.000000   0.000000   0.000000   0.000000
    27  C    0.000000   0.000000   0.000000   0.000000   0.000000   0.000000
    28  H    0.000000   0.000000   0.000000   0.000000   0.000000   0.000000
    29  H    0.000000   0.000000   0.000000   0.000000   0.000000   0.000000
    30  C    0.000000   0.000000   0.000000   0.000000   0.000000   0.000000
    31  H    0.000000   0.000000   0.000000   0.000000   0.000000   0.000000
    32  H    0.000000   0.000000   0.000000   0.000000   0.000000   0.000000
    33  C    0.000000   0.000000   0.000000   0.000000   0.000000   0.000000
    34  H    0.000000   0.000000   0.000000   0.000000   0.000000   0.000000
    35  H    0.000000   0.000000   0.000000   0.000000   0.000000   0.000000
    36  H    0.000000   0.000000   0.000000   0.000000   0.000000   0.000000
               7          8          9         10         11         12
     1  C   -0.023827  -0.023797   0.009391  -0.004392  -0.004374  -0.000510
     2  C    0.375270   0.375197  -0.046186  -0.027287  -0.027345   0.008369
     3  H   -0.006692  -0.006704  -0.000555  -0.000047  -0.000045   0.000016
     4  H   -0.010176   0.008801   0.000467  -0.001941   0.007554  -0.000008
     5  H    0.008802  -0.010165   0.000470   0.007552  -0.001947  -0.000008
     6  C   -0.022828  -0.022769   0.364347   0.374695   0.374831  -0.043104
     7  H    0.690934  -0.034873  -0.007354   0.009502  -0.011835   0.000362
     8  H   -0.034873   0.691018  -0.007370  -0.011876   0.009501   0.000358
     9  C   -0.007354  -0.007370   4.749564  -0.020964  -0.020978   0.364320
    10  H    0.009502  -0.011876  -0.020964   0.696239  -0.037152  -0.007319
    11  H   -0.011835   0.009501  -0.020978  -0.037152   0.696040  -0.007335
    12  C    0.000362   0.000358   0.364320  -0.007319  -0.007335   4.747113
    13  H    0.007900  -0.002030   0.372316   0.009439  -0.011949  -0.021277
    14  H   -0.002038   0.007899   0.372188  -0.011925   0.009439  -0.021194
    15  C    0.000004   0.000004  -0.044232   0.000436   0.000431   0.367272
    16  H    0.000015  -0.000040  -0.021599   0.007732  -0.002009   0.371765
    17  H   -0.000040   0.000015  -0.021672  -0.002020   0.007739   0.371987
    18  C    0.000000   0.000000   0.008395   0.000001   0.000001  -0.045523
    19  H   -0.000012   0.000005  -0.007091   0.000014  -0.000040  -0.021267
    20  H    0.000005  -0.000012  -0.007086  -0.000040   0.000014  -0.021216
    21  C    0.000000   0.000000  -0.000459   0.000000   0.000000   0.008417
    22  H    0.000000   0.000000   0.000387  -0.000012   0.000005  -0.007152
    23  H    0.000000   0.000000   0.000390   0.000005  -0.000012  -0.007085
    24  C    0.000000   0.000000   0.000008   0.000000   0.000000  -0.000449
    25  H    0.000000   0.000000   0.000003   0.000000   0.000000   0.000386
    26  H    0.000000   0.000000   0.000002   0.000000   0.000000   0.000388
    27  C    0.000000   0.000000   0.000000   0.000000   0.000000   0.000007
    28  H    0.000000   0.000000   0.000000   0.000000   0.000000   0.000000
    29  H    0.000000   0.000000   0.000000   0.000000   0.000000  -0.000003
    30  C    0.000000   0.000000   0.000000   0.000000   0.000000   0.000000
    31  H    0.000000   0.000000   0.000000   0.000000   0.000000   0.000000
    32  H    0.000000   0.000000   0.000000   0.000000   0.000000   0.000000
    33  C    0.000000   0.000000   0.000000   0.000000   0.000000   0.000000
    34  H    0.000000   0.000000   0.000000   0.000000   0.000000   0.000000
    35  H    0.000000   0.000000   0.000000   0.000000   0.000000   0.000000
    36  H    0.000000   0.000000   0.000000   0.000000   0.000000   0.000000
              13         14         15         16         17         18
     1  C    0.000293   0.000298   0.000009   0.000007   0.000007   0.000000
     2  C   -0.006634  -0.006623  -0.000440   0.000318   0.000325   0.000008
     3  H    0.000008   0.000008   0.000000   0.000000   0.000000   0.000000
     4  H   -0.000053   0.000024   0.000000   0.000004  -0.000010   0.000000
     5  H    0.000024  -0.000053   0.000000  -0.000010   0.000004   0.000000
     6  C   -0.022316  -0.022295   0.008163  -0.007035  -0.007014  -0.000458
     7  H    0.007900  -0.002038   0.000004   0.000015  -0.000040   0.000000
     8  H   -0.002030   0.007899   0.000004  -0.000040   0.000015   0.000000
     9  C    0.372316   0.372188  -0.044232  -0.021599  -0.021672   0.008395
    10  H    0.009439  -0.011925   0.000436   0.007732  -0.002020   0.000001
    11  H   -0.011949   0.009439   0.000431  -0.002009   0.007739   0.000001
    12  C   -0.021277  -0.021194   0.367272   0.371765   0.371987  -0.045523
    13  H    0.695782  -0.036309  -0.007216   0.009374  -0.011853   0.000401
    14  H   -0.036309   0.695978  -0.007242  -0.011922   0.009371   0.000394
    15  C   -0.007216  -0.007242   4.742008  -0.021128  -0.021176   0.369239
    16  H    0.009374  -0.011922  -0.021128   0.695873  -0.036170  -0.007227
    17  H   -0.011853   0.009371  -0.021176  -0.036170   0.695439  -0.007214
    18  C    0.000401   0.000394   0.369239  -0.007227  -0.007214   4.740180
    19  H    0.007777  -0.001992   0.372006   0.009358  -0.011906  -0.021475
    20  H   -0.002005   0.007773   0.371763  -0.011884   0.009359  -0.021538
    21  C    0.000003   0.000003  -0.044773   0.000398   0.000392   0.370871
    22  H    0.000014  -0.000040  -0.020881   0.007779  -0.001991   0.372117
    23  H   -0.000040   0.000014  -0.020815  -0.002004   0.007768   0.371455
    24  C    0.000000   0.000000   0.008253   0.000003   0.000002  -0.045482
    25  H   -0.000012   0.000005  -0.007172   0.000014  -0.000040  -0.020364
    26  H    0.000005  -0.000012  -0.007043  -0.000039   0.000014  -0.021573
    27  C    0.000000   0.000000  -0.000435   0.000000   0.000000   0.008280
    28  H    0.000000   0.000000   0.000453  -0.000012   0.000005  -0.007139
    29  H    0.000000   0.000000   0.000425   0.000006  -0.000012  -0.007151
    30  C    0.000000   0.000000   0.000007   0.000000   0.000000  -0.000389
    31  H    0.000000   0.000000   0.000011   0.000000   0.000000   0.000325
    32  H    0.000000   0.000000  -0.000008   0.000000   0.000000   0.000526
    33  C    0.000000   0.000000   0.000000   0.000000   0.000000   0.000004
    34  H    0.000000   0.000000   0.000000   0.000000   0.000000  -0.000001
    35  H    0.000000   0.000000   0.000000   0.000000   0.000000   0.000000
    36  H    0.000000   0.000000   0.000000   0.000000   0.000000  -0.000006
              19         20         21         22         23         24
     1  C    0.000000   0.000000   0.000000   0.000000   0.000000   0.000000
     2  C    0.000003   0.000003   0.000000   0.000000   0.000000   0.000000
     3  H    0.000000   0.000000   0.000000   0.000000   0.000000   0.000000
     4  H    0.000000   0.000000   0.000000   0.000000   0.000000   0.000000
     5  H    0.000000   0.000000   0.000000   0.000000   0.000000   0.000000
     6  C    0.000375   0.000384   0.000008   0.000003   0.000003   0.000000
     7  H   -0.000012   0.000005   0.000000   0.000000   0.000000   0.000000
     8  H    0.000005  -0.000012   0.000000   0.000000   0.000000   0.000000
     9  C   -0.007091  -0.007086  -0.000459   0.000387   0.000390   0.000008
    10  H    0.000014  -0.000040   0.000000  -0.000012   0.000005   0.000000
    11  H   -0.000040   0.000014   0.000000   0.000005  -0.000012   0.000000
    12  C   -0.021267  -0.021216   0.008417  -0.007152  -0.007085  -0.000449
    13  H    0.007777  -0.002005   0.000003   0.000014  -0.000040   0.000000
    14  H   -0.001992   0.007773   0.000003  -0.000040   0.000014   0.000000
    15  C    0.372006   0.371763  -0.044773  -0.020881  -0.020815   0.008253
    16  H    0.009358  -0.011884   0.000398   0.007779  -0.002004   0.000003
    17  H   -0.011906   0.009359   0.000392  -0.001991   0.007768   0.000002
    18  C   -0.021475  -0.021538   0.370871   0.372117   0.371455  -0.045482
    19  H    0.695035  -0.036110  -0.007208   0.009341  -0.011850   0.000396
    20  H   -0.036110   0.695567  -0.007124  -0.011900   0.009346   0.000379
    21  C   -0.007208  -0.007124   4.735228  -0.022114  -0.021418   0.373681
    22  H    0.009341  -0.011900  -0.022114   0.694433  -0.035940  -0.006833
    23  H   -0.011850   0.009346  -0.021418  -0.035940   0.693857  -0.006683
    24  C    0.000396   0.000379   0.373681  -0.006833  -0.006683   4.760090
    25  H    0.007750  -0.001989   0.371325   0.009308  -0.011845  -0.020874
    26  H   -0.001988   0.007722   0.372859  -0.011790   0.009303  -0.023468
    27  C    0.000002   0.000003  -0.046637   0.000296   0.000382   0.414373
    28  H    0.000012  -0.000042  -0.018184   0.007670  -0.002020   0.370671
    29  H   -0.000033   0.000008  -0.019958  -0.002045   0.007173   0.364631
    30  C    0.000000   0.000000   0.008420   0.000005  -0.000014  -0.059708
    31  H   -0.000012   0.000005  -0.004028   0.000014  -0.000043  -0.029951
    32  H    0.000006  -0.000014  -0.010416  -0.000056  -0.000004  -0.021497
    33  C    0.000000   0.000000   0.000045   0.000000  -0.000007  -0.006412
    34  H    0.000000   0.000000   0.000005   0.000000   0.000000  -0.000048
    35  H    0.000000   0.000000   0.000023   0.000000   0.000000  -0.000341
    36  H    0.000000   0.000000   0.000563  -0.000008   0.000000  -0.009639
              25         26         27         28         29         30
     1  C    0.000000   0.000000   0.000000   0.000000   0.000000   0.000000
     2  C    0.000000   0.000000   0.000000   0.000000   0.000000   0.000000
     3  H    0.000000   0.000000   0.000000   0.000000   0.000000   0.000000
     4  H    0.000000   0.000000   0.000000   0.000000   0.000000   0.000000
     5  H    0.000000   0.000000   0.000000   0.000000   0.000000   0.000000
     6  C    0.000000   0.000000   0.000000   0.000000   0.000000   0.000000
     7  H    0.000000   0.000000   0.000000   0.000000   0.000000   0.000000
     8  H    0.000000   0.000000   0.000000   0.000000   0.000000   0.000000
     9  C    0.000003   0.000002   0.000000   0.000000   0.000000   0.000000
    10  H    0.000000   0.000000   0.000000   0.000000   0.000000   0.000000
    11  H    0.000000   0.000000   0.000000   0.000000   0.000000   0.000000
    12  C    0.000386   0.000388   0.000007   0.000000  -0.000003   0.000000
    13  H   -0.000012   0.000005   0.000000   0.000000   0.000000   0.000000
    14  H    0.000005  -0.000012   0.000000   0.000000   0.000000   0.000000
    15  C   -0.007172  -0.007043  -0.000435   0.000453   0.000425   0.000007
    16  H    0.000014  -0.000039   0.000000  -0.000012   0.000006   0.000000
    17  H   -0.000040   0.000014   0.000000   0.000005  -0.000012   0.000000
    18  C   -0.020364  -0.021573   0.008280  -0.007139  -0.007151  -0.000389
    19  H    0.007750  -0.001988   0.000002   0.000012  -0.000033   0.000000
    20  H   -0.001989   0.007722   0.000003  -0.000042   0.000008   0.000000
    21  C    0.371325   0.372859  -0.046637  -0.018184  -0.019958   0.008420
    22  H    0.009308  -0.011790   0.000296   0.007670  -0.002045   0.000005
    23  H   -0.011845   0.009303   0.000382  -0.002020   0.007173  -0.000014
    24  C   -0.020874  -0.023468   0.414373   0.370671   0.364631  -0.059708
    25  H    0.691893  -0.036007  -0.006983   0.009230  -0.012055   0.000144
    26  H   -0.036007   0.693100  -0.005898  -0.011965   0.009391   0.000535
    27  C   -0.006983  -0.005898   4.716563  -0.025791  -0.036972   0.369322
    28  H    0.009230  -0.011965  -0.025791   0.689740  -0.035891  -0.005711
    29  H   -0.012055   0.009391  -0.036972  -0.035891   0.691442   0.009886
    30  C    0.000144   0.000535   0.369322  -0.005711   0.009886   4.817313
    31  H    0.007366  -0.002001   0.376581   0.009264  -0.010347  -0.027435
    32  H   -0.002111   0.008574   0.335200  -0.011052   0.011005  -0.016715
    33  C    0.000032  -0.000014  -0.064821   0.000102   0.003850   0.661731
    34  H    0.000003  -0.000001   0.011237   0.000048  -0.000613  -0.023120
    35  H   -0.000017   0.000005  -0.020898   0.000012   0.000349  -0.030888
    36  H    0.000005  -0.000019  -0.055475   0.006267  -0.000186   0.397255
              31         32         33         34         35         36
     1  C    0.000000   0.000000   0.000000   0.000000   0.000000   0.000000
     2  C    0.000000   0.000000   0.000000   0.000000   0.000000   0.000000
     3  H    0.000000   0.000000   0.000000   0.000000   0.000000   0.000000
     4  H    0.000000   0.000000   0.000000   0.000000   0.000000   0.000000
     5  H    0.000000   0.000000   0.000000   0.000000   0.000000   0.000000
     6  C    0.000000   0.000000   0.000000   0.000000   0.000000   0.000000
     7  H    0.000000   0.000000   0.000000   0.000000   0.000000   0.000000
     8  H    0.000000   0.000000   0.000000   0.000000   0.000000   0.000000
     9  C    0.000000   0.000000   0.000000   0.000000   0.000000   0.000000
    10  H    0.000000   0.000000   0.000000   0.000000   0.000000   0.000000
    11  H    0.000000   0.000000   0.000000   0.000000   0.000000   0.000000
    12  C    0.000000   0.000000   0.000000   0.000000   0.000000   0.000000
    13  H    0.000000   0.000000   0.000000   0.000000   0.000000   0.000000
    14  H    0.000000   0.000000   0.000000   0.000000   0.000000   0.000000
    15  C    0.000011  -0.000008   0.000000   0.000000   0.000000   0.000000
    16  H    0.000000   0.000000   0.000000   0.000000   0.000000   0.000000
    17  H    0.000000   0.000000   0.000000   0.000000   0.000000   0.000000
    18  C    0.000325   0.000526   0.000004  -0.000001   0.000000  -0.000006
    19  H   -0.000012   0.000006   0.000000   0.000000   0.000000   0.000000
    20  H    0.000005  -0.000014   0.000000   0.000000   0.000000   0.000000
    21  C   -0.004028  -0.010416   0.000045   0.000005   0.000023   0.000563
    22  H    0.000014  -0.000056   0.000000   0.000000   0.000000  -0.000008
    23  H   -0.000043  -0.000004  -0.000007   0.000000   0.000000   0.000000
    24  C   -0.029951  -0.021497  -0.006412  -0.000048  -0.000341  -0.009639
    25  H    0.007366  -0.002111   0.000032   0.000003  -0.000017   0.000005
    26  H   -0.002001   0.008574  -0.000014  -0.000001   0.000005  -0.000019
    27  C    0.376581   0.335200  -0.064821   0.011237  -0.020898  -0.055475
    28  H    0.009264  -0.011052   0.000102   0.000048   0.000012   0.006267
    29  H   -0.010347   0.011005   0.003850  -0.000613   0.000349  -0.000186
    30  C   -0.027435  -0.016715   0.661731  -0.023120  -0.030888   0.397255
    31  H    0.683207  -0.029497  -0.006941  -0.000181   0.005702   0.008695
    32  H   -0.029497   0.704667   0.006105  -0.000635   0.001638  -0.001610
    33  C   -0.006941   0.006105   4.792542   0.383990   0.393863  -0.045206
    34  H   -0.000181  -0.000635   0.383990   0.636104  -0.048485  -0.012681
    35  H    0.005702   0.001638   0.393863  -0.048485   0.637691   0.009749
    36  H    0.008695  -0.001610  -0.045206  -0.012681   0.009749   0.663535
 Mulliken charges:
               1
     1  C   -0.053493
     2  C   -0.078630
     3  H    0.035049
     4  H    0.032864
     5  H    0.032796
     6  C   -0.057669
     7  H    0.026881
     8  H    0.026839
     9  C   -0.036699
    10  H    0.019359
    11  H    0.019467
    12  C   -0.037310
    13  H    0.018357
    14  H    0.018253
    15  C   -0.037926
    16  H    0.018432
    17  H    0.018691
    18  C   -0.036654
    19  H    0.018906
    20  H    0.018630
    21  C   -0.039925
    22  H    0.019390
    23  H    0.020082
    24  C   -0.061103
    25  H    0.022004
    26  H    0.019918
    27  C    0.031663
    28  H    0.024330
    29  H    0.027104
    30  C   -0.100637
    31  H    0.019266
    32  H    0.025894
    33  C   -0.118864
    34  H    0.054378
    35  H    0.051596
    36  H    0.038759
 Sum of Mulliken charges =   0.00000
 Mulliken charges with hydrogens summed into heavy atoms:
               1
     1  C    0.047216
     2  C   -0.024910
     6  C   -0.018843
     9  C   -0.000089
    12  C   -0.000186
    15  C   -0.000390
    18  C    0.002818
    21  C    0.001998
    24  C   -0.009669
    27  C    0.076823
    30  C   -0.061878
    33  C   -0.012889
 Electronic spatial extent (au):  <R**2>=           6921.5320
 Charge=              0.0000 electrons
 Dipole moment (field-independent basis, Debye):
    X=             -0.5665    Y=              0.1321    Z=             -0.1788  Tot=              0.6086
 Quadrupole moment (field-independent basis, Debye-Ang):
   XX=            -86.6291   YY=            -80.5605   ZZ=            -78.5674
   XY=             -0.0269   XZ=             -0.3785   YZ=              0.1555
 Traceless Quadrupole moment (field-independent basis, Debye-Ang):
   XX=             -4.7101   YY=              1.3585   ZZ=              3.3516
   XY=             -0.0269   XZ=             -0.3785   YZ=              0.1555
 Octapole moment (field-independent basis, Debye-Ang**2):
  XXX=            -39.5684  YYY=             -0.2305  ZZZ=             -1.9836  XYY=              2.0015
  XXY=              4.2800  XXZ=              2.8673  XZZ=             -1.3521  YZZ=             -0.2128
  YYZ=              0.6694  XYZ=              2.0176
 Hexadecapole moment (field-independent basis, Debye-Ang**3):
 XXXX=          -9683.6266 YYYY=           -280.5565 ZZZZ=           -191.1865 XXXY=            -38.8534
 XXXZ=             54.7621 YYYX=             -2.8207 YYYZ=             -2.5448 ZZZX=            -10.8502
 ZZZY=              1.6753 XXYY=          -1570.0068 XXZZ=          -1541.3673 YYZZ=            -72.7413
 XXYZ=              8.5845 YYXZ=              4.5451 ZZXY=              0.6263
 N-N= 6.546736667148D+02 E-N=-2.395617977993D+03  KE= 4.650914186211D+02
   1 Symmetry operations used in ECPInt.
 ECPInt:  NShTT=   10440 NPrTT=   35208 LenC2=    8755 LenP2D=   21882.
 LDataN:  DoStor=T MaxTD1= 5 Len=  102
 Calling FoFJK, ICntrl=      2127 FMM=F ISym2X=0 I1Cent= 0 IOpClX= 0 NMat=1 NMatS=1 NMatT=0.
 ***** Axes restored to original set *****
 -------------------------------------------------------------------
 Center     Atomic                   Forces (Hartrees/Bohr)
 Number     Number              X              Y              Z
 -------------------------------------------------------------------
      1        6           0.005894675    0.000006462    0.008758747
      2        6          -0.015537975   -0.000015778   -0.013117338
      3        1           0.003361360   -0.000000928   -0.004682544
      4        1          -0.002697659    0.003584113   -0.002779098
      5        1          -0.002699017   -0.003591403   -0.002780579
      6        6           0.021447317    0.000036966    0.014423976
      7        1           0.003035444    0.003845410    0.004288057
      8        1           0.003048209   -0.003839879    0.004286062
      9        6          -0.021481138   -0.000059409   -0.014579302
     10        1          -0.003899703   -0.004382860   -0.002727798
     11        1          -0.003905223    0.004368125   -0.002736276
     12        6           0.021434276    0.000098838    0.014596444
     13        1           0.003871006    0.004296421    0.002625550
     14        1           0.003900854   -0.004276195    0.002628059
     15        6          -0.021382903   -0.000129747   -0.014284055
     16        1          -0.003896865   -0.004315492   -0.002621034
     17        1          -0.003910305    0.004275300   -0.002642685
     18        6           0.020360922    0.000291772    0.014650454
     19        1           0.003862294    0.004303363    0.002627161
     20        1           0.003920738   -0.004262633    0.002644046
     21        6          -0.020185708   -0.000325619   -0.012176786
     22        1          -0.003847655   -0.004306429   -0.002646686
     23        1          -0.003878542    0.004213167   -0.002680428
     24        6           0.014547895   -0.000079569    0.010719661
     25        1           0.003853690    0.004245111    0.002601089
     26        1           0.003918688   -0.004141636    0.002677717
     27        6          -0.006249798   -0.015277145    0.016711360
     28        1          -0.003632348   -0.003818864   -0.002149515
     29        1          -0.003956649    0.003772983   -0.001611698
     30        6           0.012305827    0.005712423   -0.001747041
     31        1           0.001216654    0.004410100    0.002354254
     32        1           0.009619301   -0.006678609   -0.002777095
     33        6          -0.002169946   -0.000284237    0.000270865
     34        1          -0.017948116   -0.014986751    0.017843375
     35        1           0.013997829    0.024619607   -0.010060582
     36        1          -0.012317428    0.002693021   -0.025906339
 -------------------------------------------------------------------
 Cartesian Forces:  Max     0.025906339 RMS     0.009103741
 -----------------------------------------------------------------------------------------------
                       Internal Coordinate Forces (Hartree/Bohr or radian)
  Cent   Atom   N1       Length/X         N2         Alpha/Y        N3         Beta/Z          J
 -----------------------------------------------------------------------------------------------
      1  C 
      2  C        1   0.001483(     1)
      3  H        1   0.004775(     2)      2   0.006678(    36)
      4  H        1   0.005151(     3)      2   0.002068(    37)      3  -0.001090(    70)     0
      5  H        1   0.005158(     4)      2   0.002065(    38)      3   0.001085(    71)     0
      6  C        2  -0.002998(     5)      1   0.010388(    39)      3  -0.000006(    72)     0
      7  H        2   0.006002(     6)      1   0.005087(    40)      3  -0.001127(    73)     0
      8  H        2   0.006004(     7)      1   0.005081(    41)      3   0.001147(    74)     0
      9  C        6  -0.002956(     8)      2   0.011562(    42)      1  -0.000044(    75)     0
     10  H        6   0.006351(     9)      2   0.001108(    43)      1  -0.002174(    76)     0
     11  H        6   0.006348(    10)      2   0.001107(    44)      1   0.002176(    77)     0
     12  C        9  -0.002926(    11)      6   0.011651(    45)      2  -0.000020(    78)     0
     13  H        9   0.006232(    12)      6   0.001220(    46)      2  -0.002099(    79)     0
     14  H        9   0.006236(    13)      6   0.001200(    47)      2   0.002126(    80)     0
     15  C       12  -0.002962(    14)      9   0.011575(    48)      6  -0.000049(    81)     0
     16  H       12   0.006256(    15)      9   0.001267(    49)      6  -0.002105(    82)     0
     17  H       12   0.006247(    16)      9   0.001260(    50)      6   0.002103(    83)     0
     18  C       15  -0.003019(    17)     12   0.011410(    51)      9  -0.000044(    84)     0
     19  H       15   0.006230(    18)     12   0.001242(    52)      9  -0.002104(    85)     0
     20  H       15   0.006244(    19)     12   0.001211(    53)      9   0.002147(    86)     0
     21  C       18  -0.003269(    20)     15   0.010807(    54)     12  -0.000073(    87)     0
     22  H       18   0.006230(    21)     15   0.001177(    55)     12  -0.002156(    88)     0
     23  H       18   0.006198(    22)     15   0.001192(    56)     12   0.002172(    89)     0
     24  C       21  -0.003702(    23)     18   0.009404(    57)     15  -0.000095(    90)     0
     25  H       21   0.006167(    24)     18   0.001250(    58)     15  -0.002177(    91)     0
     26  H       21   0.006161(    25)     18   0.001326(    59)     15   0.002241(    92)     0
     27  C       24  -0.003315(    26)     21   0.007609(    60)     18   0.000816(    93)     0
     28  H       24   0.005566(    27)     21   0.001654(    61)     18  -0.001728(    94)     0
     29  H       24   0.005525(    28)     21   0.002717(    62)     18   0.000981(    95)     0
     30  C       27  -0.001711(    29)     24  -0.010957(    63)     21  -0.012372(    96)     0
     31  H       27   0.004920(    30)     24   0.001609(    64)     21   0.002521(    97)     0
     32  H       27   0.009094(    31)     24  -0.012928(    65)     21   0.009395(    98)     0
     33  C       30   0.013734(    32)     27   0.003037(    66)     24   0.054639(    99)     0
     34  H       33   0.008340(    33)     30   0.004266(    67)     27   0.049064(   100)     0
     35  H       33   0.009659(    34)     30   0.004402(    68)     27   0.050040(   101)     0
     36  H       30   0.010190(    35)     27  -0.006190(    69)     24  -0.049113(   102)     0
 -----------------------------------------------------------------------------------------------
 Internal  Forces:  Max     0.054638835 RMS     0.011443599

 GradGradGradGradGradGradGradGradGradGradGradGradGradGradGradGradGradGrad
 Berny optimization.
 Search for a local minimum.
 Step number   1 out of a maximum of  200
 All quantities printed in internal units (Hartrees-Bohrs-Radians)
 Second derivative matrix not updated -- first step.
 ITU=  0
     Eigenvalues ---    0.01015   0.01016   0.01028   0.01028   0.01028
     Eigenvalues ---    0.01031   0.01038   0.01072   0.01312   0.01977
     Eigenvalues ---    0.08427   0.13370   0.15083   0.15094   0.15113
     Eigenvalues ---    0.15114   0.15115   0.15119   0.15129   0.15296
     Eigenvalues ---    0.15819   0.16000   0.17236   0.17287   0.17292
     Eigenvalues ---    0.17292   0.17293   0.17293   0.17305   0.17324
     Eigenvalues ---    0.17542   0.19880   0.20946   0.23861   0.29418
     Eigenvalues ---    0.29426   0.29460   0.29461   0.29462   0.29462
     Eigenvalues ---    0.29463   0.29566   0.30331   0.32194   0.33834
     Eigenvalues ---    0.33966   0.33967   0.34027   0.34033   0.34033
     Eigenvalues ---    0.34036   0.34036   0.34037   0.34037   0.34037
     Eigenvalues ---    0.34037   0.34037   0.34037   0.34037   0.34037
     Eigenvalues ---    0.34064   0.34104   0.34104   0.34276   0.34277
     Eigenvalues ---    0.34299   0.35012   0.35313   0.35332   0.36582
     Eigenvalues ---    0.36627   0.36659   0.36681   0.36682   0.36682
     Eigenvalues ---    0.36685   0.36693   0.37162   0.39241   0.39324
     Eigenvalues ---    0.39326   0.39326   0.39328   0.39332   0.39339
     Eigenvalues ---    0.39352   0.39416   0.39725   0.42862   0.42864
     Eigenvalues ---    0.42864   0.42864   0.42872   0.42883   0.42892
     Eigenvalues ---    0.42923   0.43146   0.48000   0.53121   0.57454
     Eigenvalues --- 1000.000001000.00000
 RFO step:  Lambda=-3.11831803D-02 EMin= 1.01476793D-02
 Linear search not attempted -- first point.
 Maximum step size (   0.300) exceeded in Quadratic search.
    -- Step size scaled by   0.838
 Variable       Old X    -DE/DX   Delta X   Delta X   Delta X     New X
                                 (Linear)    (Quad)   (Total)
    B1        2.87308   0.00148   0.00000   0.00372   0.00372   2.87680
    B2        2.06829   0.00477   0.00000   0.01069   0.01069   2.07898
    A2        1.92443   0.00668   0.00000   0.02295   0.02295   1.94738
    B3        2.06866   0.00515   0.00000   0.01154   0.01154   2.08020
    A3        1.93731   0.00207   0.00000   0.00091   0.00091   1.93822
    D3        4.19337  -0.00109   0.00000  -0.00714  -0.00714   4.18623
    B4        2.06865   0.00516   0.00000   0.01155   0.01155   2.08020
    A4        1.93737   0.00207   0.00000   0.00069   0.00069   1.93806
    D4        2.08990   0.00108   0.00000   0.00639   0.00639   2.09629
    B5        2.88837  -0.00300   0.00000  -0.00768  -0.00768   2.88069
    A5        1.94593   0.01039   0.00000   0.02327   0.02327   1.96920
    D5        3.14200  -0.00001   0.00000   0.00359   0.00359   3.14559
    B6        2.07156   0.00600   0.00000   0.01351   0.01351   2.08506
    A6        1.90492   0.00509   0.00000   0.00865   0.00865   1.91357
    D6        1.02042  -0.00113   0.00000  -0.00211  -0.00211   1.01832
    B7        2.07156   0.00600   0.00000   0.01351   0.01351   2.08507
    A7        1.90497   0.00508   0.00000   0.00883   0.00883   1.91379
    D7        5.26348   0.00115   0.00000   0.00788   0.00788   5.27136
    B8        2.89047  -0.00296   0.00000  -0.00760  -0.00760   2.88287
    A8        1.94309   0.01156   0.00000   0.03045   0.03045   1.97354
    D8        3.14277  -0.00004   0.00000   0.00810   0.00810   3.15087
    B9        2.07275   0.00635   0.00000   0.01432   0.01432   2.08707
    A9        1.91232   0.00111   0.00000  -0.00343  -0.00343   1.90890
    D9        1.02439  -0.00217   0.00000  -0.00525  -0.00525   1.01913
   B10        2.07275   0.00635   0.00000   0.01431   0.01431   2.08706
   A10        1.91235   0.00111   0.00000  -0.00442  -0.00442   1.90794
   D10        5.26097   0.00218   0.00000   0.01657   0.01657   5.27755
   B11        2.89051  -0.00293   0.00000  -0.00752  -0.00752   2.88298
   A11        1.94306   0.01165   0.00000   0.03144   0.03144   1.97450
   D11        3.14246  -0.00002   0.00000   0.00339   0.00339   3.14585
   B12        2.07269   0.00623   0.00000   0.01405   0.01405   2.08674
   A12        1.91222   0.00122   0.00000  -0.00387  -0.00387   1.90835
[...]
     4  H   -0.009871   0.008653   0.000445  -0.001920   0.007739  -0.000007
     5  H    0.008651  -0.009905   0.000441   0.007725  -0.001915  -0.000007
     6  C   -0.024680  -0.024697   0.366679   0.372499   0.372558  -0.039137
     7  H    0.692810  -0.036036  -0.007342   0.009827  -0.012019   0.000332
     8  H   -0.036036   0.692864  -0.007319  -0.012008   0.009827   0.000335
     9  C   -0.007342  -0.007319   4.747558  -0.021947  -0.022031   0.368636
    10  H    0.009827  -0.012008  -0.021947   0.699982  -0.038210  -0.007508
    11  H   -0.012019   0.009827  -0.022031  -0.038210   0.699938  -0.007496
    12  C    0.000332   0.000335   0.368636  -0.007508  -0.007496   4.743253
    13  H    0.008383  -0.002092   0.370211   0.009711  -0.012021  -0.022388
    14  H   -0.002085   0.008368   0.370095  -0.012070   0.009712  -0.022372
    15  C    0.000004   0.000004  -0.040826   0.000401   0.000407   0.372477
    16  H    0.000020  -0.000042  -0.022806   0.008129  -0.002033   0.369879
    17  H   -0.000042   0.000020  -0.022811  -0.002023   0.008137   0.369989
    18  C    0.000000   0.000000   0.007955   0.000001   0.000001  -0.042226
    19  H   -0.000011   0.000004  -0.007115   0.000018  -0.000041  -0.022561
    20  H    0.000004  -0.000011  -0.007148  -0.000041   0.000018  -0.022480
    21  C    0.000000   0.000000  -0.000409   0.000000   0.000000   0.007973
    22  H    0.000000   0.000000   0.000360  -0.000011   0.000005  -0.007183
    23  H    0.000000   0.000000   0.000344   0.000005  -0.000011  -0.007059
    24  C    0.000000   0.000000   0.000006   0.000000   0.000000  -0.000393
    25  H    0.000000   0.000000   0.000003   0.000000   0.000000   0.000344
    26  H    0.000000   0.000000   0.000002   0.000000   0.000000   0.000361
    27  C    0.000000   0.000000   0.000000   0.000000   0.000000   0.000006
    28  H    0.000000   0.000000   0.000000   0.000000   0.000000  -0.000001
    29  H    0.000000   0.000000   0.000000   0.000000   0.000000  -0.000004
    30  C    0.000000   0.000000   0.000000   0.000000   0.000000   0.000000
    31  H    0.000000   0.000000   0.000000   0.000000   0.000000   0.000000
    32  H    0.000000   0.000000   0.000000   0.000000   0.000000   0.000000
    33  C    0.000000   0.000000   0.000000   0.000000   0.000000   0.000000
    34  H    0.000000   0.000000   0.000000   0.000000   0.000000   0.000000
    35  H    0.000000   0.000000   0.000000   0.000000   0.000000   0.000000
    36  H    0.000000   0.000000   0.000000   0.000000   0.000000   0.000000
              13         14         15         16         17         18
     1  C    0.000274   0.000269   0.000007   0.000007   0.000007   0.000000
     2  C   -0.006698  -0.006701  -0.000377   0.000295   0.000292   0.000006
     3  H    0.000008   0.000008   0.000000   0.000000   0.000000   0.000000
     4  H   -0.000051   0.000025   0.000000   0.000003  -0.000009   0.000000
     5  H    0.000025  -0.000050   0.000000  -0.000009   0.000003   0.000000
     6  C   -0.023545  -0.023475   0.007675  -0.007063  -0.007082  -0.000403
     7  H    0.008383  -0.002085   0.000004   0.000020  -0.000042   0.000000
     8  H   -0.002092   0.008368   0.000004  -0.000042   0.000020   0.000000
     9  C    0.370211   0.370095  -0.040826  -0.022806  -0.022811   0.007955
    10  H    0.009711  -0.012070   0.000401   0.008129  -0.002023   0.000001
    11  H   -0.012021   0.009712   0.000407  -0.002033   0.008137   0.000001
    12  C   -0.022388  -0.022372   0.372477   0.369879   0.369989  -0.042226
    13  H    0.699320  -0.037447  -0.007300   0.009658  -0.012032   0.000364
    14  H   -0.037447   0.699439  -0.007285  -0.012013   0.009657   0.000368
    15  C   -0.007300  -0.007285   4.737903  -0.022354  -0.022431   0.374028
    16  H    0.009658  -0.012013  -0.022354   0.699076  -0.037338  -0.007284
    17  H   -0.012032   0.009657  -0.022431  -0.037338   0.698841  -0.007226
    18  C    0.000364   0.000368   0.374028  -0.007284  -0.007226   4.736910
    19  H    0.008184  -0.002029   0.370053   0.009643  -0.012005  -0.022637
    20  H   -0.002020   0.008177   0.369715  -0.012060   0.009647  -0.022507
    21  C    0.000003   0.000003  -0.041238   0.000360   0.000366   0.373033
    22  H    0.000019  -0.000041  -0.022047   0.008173  -0.002026   0.369874
    23  H   -0.000040   0.000019  -0.022569  -0.002016   0.008159   0.370667
    24  C    0.000000   0.000000   0.007639   0.000004   0.000003  -0.039974
    25  H   -0.000011   0.000005  -0.007102   0.000019  -0.000040  -0.022144
    26  H    0.000005  -0.000011  -0.007342  -0.000040   0.000019  -0.021687
    27  C    0.000000   0.000000  -0.000385   0.000000   0.000000   0.007881
    28  H    0.000000   0.000000   0.000408  -0.000011   0.000005  -0.007623
    29  H    0.000000   0.000000   0.000439   0.000005  -0.000010  -0.007612
    30  C    0.000000   0.000000   0.000007   0.000000   0.000000  -0.000409
    31  H    0.000000   0.000000   0.000004   0.000000   0.000000   0.000278
    32  H    0.000000   0.000000   0.000001   0.000000   0.000000   0.000414
    33  C    0.000000   0.000000   0.000000   0.000000   0.000000  -0.000013
    34  H    0.000000   0.000000   0.000000   0.000000   0.000000   0.000000
    35  H    0.000000   0.000000   0.000000   0.000000   0.000000  -0.000001
    36  H    0.000000   0.000000   0.000001   0.000000   0.000000  -0.000018
              19         20         21         22         23         24
     1  C    0.000000   0.000000   0.000000   0.000000   0.000000   0.000000
     2  C    0.000003   0.000003   0.000000   0.000000   0.000000   0.000000
     3  H    0.000000   0.000000   0.000000   0.000000   0.000000   0.000000
     4  H    0.000000   0.000000   0.000000   0.000000   0.000000   0.000000
     5  H    0.000000   0.000000   0.000000   0.000000   0.000000   0.000000
     6  C    0.000351   0.000346   0.000006   0.000003   0.000003   0.000000
     7  H   -0.000011   0.000004   0.000000   0.000000   0.000000   0.000000
     8  H    0.000004  -0.000011   0.000000   0.000000   0.000000   0.000000
     9  C   -0.007115  -0.007148  -0.000409   0.000360   0.000344   0.000006
    10  H    0.000018  -0.000041   0.000000  -0.000011   0.000005   0.000000
    11  H   -0.000041   0.000018   0.000000   0.000005  -0.000011   0.000000
    12  C   -0.022561  -0.022480   0.007973  -0.007183  -0.007059  -0.000393
    13  H    0.008184  -0.002020   0.000003   0.000019  -0.000040   0.000000
    14  H   -0.002029   0.008177   0.000003  -0.000041   0.000019   0.000000
    15  C    0.370053   0.369715  -0.041238  -0.022047  -0.022569   0.007639
    16  H    0.009643  -0.012060   0.000360   0.008173  -0.002016   0.000004
    17  H   -0.012005   0.009647   0.000366  -0.002026   0.008159   0.000003
    18  C   -0.022637  -0.022507   0.373033   0.369874   0.370667  -0.039974
    19  H    0.698609  -0.037279  -0.007265   0.009618  -0.012016   0.000371
    20  H   -0.037279   0.699028  -0.007259  -0.011995   0.009611   0.000382
    21  C   -0.007265  -0.007259   4.740602  -0.022832  -0.023144   0.364984
    22  H    0.009618  -0.011995  -0.022832   0.697871  -0.037081  -0.007004
    23  H   -0.012016   0.009611  -0.023144  -0.037081   0.696872  -0.006762
    24  C    0.000371   0.000382   0.364984  -0.007004  -0.006762   4.775793
    25  H    0.008129  -0.002020   0.369927   0.009577  -0.011959  -0.022321
    26  H   -0.002003   0.008152   0.369727  -0.011973   0.009570  -0.022788
    27  C    0.000002   0.000004  -0.045528   0.000271   0.000371   0.421492
    28  H    0.000017  -0.000042  -0.020783   0.007947  -0.002038   0.368880
    29  H   -0.000037   0.000015  -0.019557  -0.002039   0.007635   0.366909
    30  C    0.000000   0.000000   0.008964   0.000009  -0.000012  -0.057869
    31  H   -0.000011   0.000005  -0.005611   0.000014  -0.000038  -0.028177
    32  H    0.000005  -0.000012  -0.007993  -0.000054   0.000008  -0.026557
    33  C    0.000000   0.000000   0.000624   0.000001  -0.000017  -0.016904
    34  H    0.000000   0.000000  -0.000017   0.000000   0.000000   0.000502
    35  H    0.000000   0.000000   0.000052   0.000000   0.000000  -0.001279
    36  H    0.000000   0.000000   0.000918  -0.000015   0.000004  -0.012017
              25         26         27         28         29         30
     1  C    0.000000   0.000000   0.000000   0.000000   0.000000   0.000000
     2  C    0.000000   0.000000   0.000000   0.000000   0.000000   0.000000
     3  H    0.000000   0.000000   0.000000   0.000000   0.000000   0.000000
     4  H    0.000000   0.000000   0.000000   0.000000   0.000000   0.000000
     5  H    0.000000   0.000000   0.000000   0.000000   0.000000   0.000000
     6  C    0.000000   0.000000   0.000000   0.000000   0.000000   0.000000
     7  H    0.000000   0.000000   0.000000   0.000000   0.000000   0.000000
     8  H    0.000000   0.000000   0.000000   0.000000   0.000000   0.000000
     9  C    0.000003   0.000002   0.000000   0.000000   0.000000   0.000000
    10  H    0.000000   0.000000   0.000000   0.000000   0.000000   0.000000
    11  H    0.000000   0.000000   0.000000   0.000000   0.000000   0.000000
    12  C    0.000344   0.000361   0.000006  -0.000001  -0.000004   0.000000
    13  H   -0.000011   0.000005   0.000000   0.000000   0.000000   0.000000
    14  H    0.000005  -0.000011   0.000000   0.000000   0.000000   0.000000
    15  C   -0.007102  -0.007342  -0.000385   0.000408   0.000439   0.000007
    16  H    0.000019  -0.000040   0.000000  -0.000011   0.000005   0.000000
    17  H   -0.000040   0.000019   0.000000   0.000005  -0.000010   0.000000
    18  C   -0.022144  -0.021687   0.007881  -0.007623  -0.007612  -0.000409
    19  H    0.008129  -0.002003   0.000002   0.000017  -0.000037   0.000000
    20  H   -0.002020   0.008152   0.000004  -0.000042   0.000015   0.000000
    21  C    0.369927   0.369727  -0.045528  -0.020783  -0.019557   0.008964
    22  H    0.009577  -0.011973   0.000271   0.007947  -0.002039   0.000009
    23  H   -0.011959   0.009570   0.000371  -0.002038   0.007635  -0.000012
    24  C   -0.022321  -0.022788   0.421492   0.368880   0.366909  -0.057869
    25  H    0.695843  -0.037087  -0.006880   0.009460  -0.011795   0.000437
    26  H   -0.037087   0.696015  -0.006591  -0.011884   0.009377   0.000406
    27  C   -0.006880  -0.006591   4.697515  -0.028714  -0.034386   0.399114
    28  H    0.009460  -0.011884  -0.028714   0.694193  -0.035743  -0.002100
    29  H   -0.011795   0.009377  -0.034386  -0.035743   0.690265   0.003701
    30  C    0.000437   0.000406   0.399114  -0.002100   0.003701   4.723858
    31  H    0.007716  -0.001976   0.370152   0.009715  -0.011818  -0.023850
    32  H   -0.002146   0.008736   0.345349  -0.010660   0.010637  -0.014672
    33  C   -0.000028   0.000004  -0.065314  -0.001953   0.009781   0.689916
    34  H    0.000003  -0.000001   0.008699   0.000033  -0.000865  -0.009438
    35  H   -0.000013   0.000002  -0.013462   0.000099   0.000476  -0.031825
    36  H    0.000011  -0.000047  -0.054492   0.008897  -0.001254   0.375886
              31         32         33         34         35         36
     1  C    0.000000   0.000000   0.000000   0.000000   0.000000   0.000000
     2  C    0.000000   0.000000   0.000000   0.000000   0.000000   0.000000
     3  H    0.000000   0.000000   0.000000   0.000000   0.000000   0.000000
     4  H    0.000000   0.000000   0.000000   0.000000   0.000000   0.000000
     5  H    0.000000   0.000000   0.000000   0.000000   0.000000   0.000000
     6  C    0.000000   0.000000   0.000000   0.000000   0.000000   0.000000
     7  H    0.000000   0.000000   0.000000   0.000000   0.000000   0.000000
     8  H    0.000000   0.000000   0.000000   0.000000   0.000000   0.000000
     9  C    0.000000   0.000000   0.000000   0.000000   0.000000   0.000000
    10  H    0.000000   0.000000   0.000000   0.000000   0.000000   0.000000
    11  H    0.000000   0.000000   0.000000   0.000000   0.000000   0.000000
    12  C    0.000000   0.000000   0.000000   0.000000   0.000000   0.000000
    13  H    0.000000   0.000000   0.000000   0.000000   0.000000   0.000000
    14  H    0.000000   0.000000   0.000000   0.000000   0.000000   0.000000
    15  C    0.000004   0.000001   0.000000   0.000000   0.000000   0.000001
    16  H    0.000000   0.000000   0.000000   0.000000   0.000000   0.000000
    17  H    0.000000   0.000000   0.000000   0.000000   0.000000   0.000000
    18  C    0.000278   0.000414  -0.000013   0.000000  -0.000001  -0.000018
    19  H   -0.000011   0.000005   0.000000   0.000000   0.000000   0.000000
    20  H    0.000005  -0.000012   0.000000   0.000000   0.000000   0.000000
    21  C   -0.005611  -0.007993   0.000624  -0.000017   0.000052   0.000918
    22  H    0.000014  -0.000054   0.000001   0.000000   0.000000  -0.000015
    23  H   -0.000038   0.000008  -0.000017   0.000000   0.000000   0.000004
    24  C   -0.028177  -0.026557  -0.016904   0.000502  -0.001279  -0.012017
    25  H    0.007716  -0.002146  -0.000028   0.000003  -0.000013   0.000011
    26  H   -0.001976   0.008736   0.000004  -0.000001   0.000002  -0.000047
    27  C    0.370152   0.345349  -0.065314   0.008699  -0.013462  -0.054492
    28  H    0.009715  -0.010660  -0.001953   0.000033   0.000099   0.008897
    29  H   -0.011818   0.010637   0.009781  -0.000865   0.000476  -0.001254
    30  C   -0.023850  -0.014672   0.689916  -0.009438  -0.031825   0.375886
    31  H    0.685887  -0.033453  -0.011491  -0.000325   0.006687   0.009590
    32  H   -0.033453   0.697218   0.009873  -0.000429   0.000242  -0.005313
    33  C   -0.011491   0.009873   4.768239   0.377737   0.389348  -0.033829
    34  H   -0.000325  -0.000429   0.377737   0.639479  -0.048867  -0.020877
    35  H    0.006687   0.000242   0.389348  -0.048867   0.640636   0.010398
    36  H    0.009590  -0.005313  -0.033829  -0.020877   0.010398   0.701219
 Mulliken charges:
               1
     1  C   -0.062139
     2  C   -0.077782
     3  H    0.039309
     4  H    0.035106
     5  H    0.035121
     6  C   -0.062604
     7  H    0.028202
     8  H    0.028181
     9  C   -0.039901
    10  H    0.020412
    11  H    0.020426
    12  C   -0.040059
    13  H    0.019480
    14  H    0.019435
    15  C   -0.039917
    16  H    0.019797
    17  H    0.019931
    18  C   -0.040016
    19  H    0.020002
    20  H    0.019766
    21  C   -0.035910
    22  H    0.020559
    23  H    0.021496
    24  C   -0.064919
    25  H    0.022072
    26  H    0.021054
    27  C    0.004896
    28  H    0.021898
    29  H    0.025879
    30  C   -0.062123
    31  H    0.026704
    32  H    0.028805
    33  C   -0.115973
    34  H    0.054364
    35  H    0.047508
    36  H    0.020940
 Sum of Mulliken charges =   0.00000
 Mulliken charges with hydrogens summed into heavy atoms:
               1
     1  C    0.047398
     2  C   -0.021399
     6  C   -0.021766
     9  C   -0.000986
    12  C   -0.000331
    15  C   -0.000149
    18  C    0.002039
    21  C    0.007215
    24  C   -0.017143
    27  C    0.060405
    30  C   -0.041182
    33  C   -0.014101
 Electronic spatial extent (au):  <R**2>=           6865.0225
 Charge=              0.0000 electrons
 Dipole moment (field-independent basis, Debye):
    X=             -0.6812    Y=             -0.0618    Z=              0.0151  Tot=              0.6841
 Quadrupole moment (field-independent basis, Debye-Ang):
   XX=            -87.6301   YY=            -80.4831   ZZ=            -78.7884
   XY=             -1.5416   XZ=              0.6490   YZ=             -0.1860
 Traceless Quadrupole moment (field-independent basis, Debye-Ang):
   XX=             -5.3295   YY=              1.8174   ZZ=              3.5122
   XY=             -1.5416   XZ=              0.6490   YZ=             -0.1860
 Octapole moment (field-independent basis, Debye-Ang**2):
  XXX=            -65.1008  YYY=             -1.6367  ZZZ=              0.1597  XYY=              2.8175
  XXY=            -10.2148  XXZ=              8.6322  XZZ=              2.0729  YZZ=              0.1600
  YYZ=             -0.3340  XYZ=              1.4749
 Hexadecapole moment (field-independent basis, Debye-Ang**3):
 XXXX=          -9703.1316 YYYY=           -307.6986 ZZZZ=           -190.2636 XXXY=           -128.0475
 XXXZ=             69.9546 YYYX=            -12.0912 YYYZ=             -4.2706 ZZZX=              4.4397
 ZZZY=              2.7957 XXYY=          -1555.4692 XXZZ=          -1516.9333 YYZZ=            -81.6839
 XXYZ=              1.0750 YYXZ=             -2.7719 ZZXY=              2.4819
 N-N= 6.550888927540D+02 E-N=-2.396175833152D+03  KE= 4.648654647624D+02
 1\1\GINC-NODE0237\POpt\RM06\def2SVP\C12H24\JGOODPAS\17-Oct-2017\1\\# O
 pt=(Z-mat,maxcycle=200) m06/def2svp Integral=SuperFineGrid\\C12H24\\0,
 1\C\C,1,B1\H,1,B2,2,A2\H,1,B3,2,A3,3,D3,0\H,1,B4,2,A4,3,D4,0\C,2,B5,1,
 A5,3,D5,0\H,2,B6,1,A6,3,D6,0\H,2,B7,1,A7,3,D7,0\C,6,B8,2,A8,1,D8,0\H,6
 ,B9,2,A9,1,D9,0\H,6,B10,2,A10,1,D10,0\C,9,B11,6,A11,2,D11,0\H,9,B12,6,
 A12,2,D12,0\H,9,B13,6,A13,2,D13,0\C,12,B14,9,A14,6,D14,0\H,12,B15,9,A1
 5,6,D15,0\H,12,B16,9,A16,6,D16,0\C,15,B17,12,A17,9,D17,0\H,15,B18,12,A
 18,9,D18,0\H,15,B19,12,A19,9,D19,0\C,18,B20,15,A20,12,D20,0\H,18,B21,1
 5,A21,12,D21,0\H,18,B22,15,A22,12,D22,0\C,21,B23,18,A23,15,D23,0\H,21,
 B24,18,A24,15,D24,0\H,21,B25,18,A25,15,D25,0\C,24,B26,21,A26,18,D26,0\
 H,24,B27,21,A27,18,D27,0\H,24,B28,21,A28,18,D28,0\C,27,B29,24,A29,21,D
 29,0\H,27,B30,24,A30,21,D30,0\H,27,B31,24,A31,21,D31,0\C,30,B32,27,A32
 ,24,D32,0\H,33,B33,30,A33,27,D33,0\H,33,B34,30,A34,27,D34,0\H,30,B35,2
 7,A35,24,D35,0\\B1=1.51591406\B2=1.10117179\A2=112.26206299\B3=1.10339
 131\A3=111.18811295\D3=239.57954644\B4=1.10338213\A4=111.19541173\D4=1
 20.43741436\B5=1.51869986\A5=113.10863359\D5=179.92660378\B6=1.1069102
 4\A6=109.99950633\D6=57.6831835\B7=1.10691752\A7=110.00425793\D7=302.1
 7969217\B8=1.51744903\A8=113.76130812\D8=179.99045679\B9=1.10863098\A9
 =109.3742427\D9=57.32609325\B10=1.10863603\A10=109.36594526\D10=302.64
 002603\B11=1.51760358\A11=113.7399989\D11=179.90825966\B12=1.10845826\
 A12=109.39146868\D12=57.28630162\B13=1.10846586\A13=109.39517582\D13=3
 02.53548614\B14=1.51758605\A14=113.72084318\D14=179.96531118\B15=1.108
 41933\A15=109.40137574\D15=57.33654693\B16=1.10841508\A16=109.39595696
 \D16=302.5804989\B17=1.51763784\A17=113.69300466\D17=179.9060313\B18=1
 .10838554\A18=109.399298\D18=57.29483466\B19=1.10840681\A19=109.402727
 9\D19=302.52849954\B20=1.51778447\A20=113.66090837\D20=179.94901107\B2
 1=1.10835225\A21=109.40077437\D21=57.33907564\B22=1.10824936\A22=109.4
 1080111\D22=302.5490558\B23=1.51782885\A23=113.39893393\D23=179.872732
 31\B24=1.10812258\A24=109.42231917\D24=57.37073795\B25=1.10817978\A25=
 109.43425233\D25=302.480358\B26=1.52403186\A26=112.99391056\D26=180.45
 558097\B27=1.10774723\A27=109.56202499\D27=57.97499281\B28=1.1068181\A
 28=110.02308602\D28=302.51692238\B29=1.49872496\A29=109.76936123\D29=1
 81.71606126\B30=1.10740842\A30=109.17660294\D30=59.85634003\B31=1.1075
 0162\A31=108.62174575\D31=304.55942493\B32=1.33963324\A32=127.45951698
 \D32=272.1336041\B33=1.09510248\A33=121.68296573\B34=1.09900405\A34=12
 1.99132149\B35=1.10619046\A35=110.10788752\D35=58.11831059\D33=135.\D3
 4=315.\\Version=ES64L-G09RevD.01\State=1-A\HF=-470.9583408\RMSD=2.895e
 -09\RMSF=5.066e-03\Dipole=0.1376133,0.0033615,-0.2313011\Quadrupole=0.
 4958649,2.6394809,-3.1353458,-0.1883379,2.2118647,0.5371152\PG=C01 [X(
 C12H24)]\\@


 ROSE IS A RED
 TY COBB IS BLUE
 'CAUSE PETE JUST HIT
 NO. 4592.
 Job cpu time:       0 days  2 hours 34 minutes  2.3 seconds.
 File lengths (MBytes):  RWF=     40 Int=      0 D2E=      0 Chk=     18 Scr=      1
 Normal termination of Gaussian 09 at Tue Oct 17 17:10:02 2017.
8896.75user 345.53system 20:59.88elapsed 733%CPU (0avgtext+0avgdata 7505712maxresident)k
325616inputs+884296outputs (231major+220225662minor)pagefaults 0swaps
