 Entering Gaussian System, Link 0=g09
 Initial command:
 /soft/gaussian/g09.d01_itasca/g09/l1.exe "/scratch/jgoodpas/2034009.node1081.localdomain/Gau-13903.inp" -scrdir="/scratch/jgoodpas/2034009.node1081.localdomain/"
 Entering Link 1 = /soft/gaussian/g09.d01_itasca/g09/l1.exe PID=     13904.
  
 Copyright (c) 1988,1990,1992,1993,1995,1998,2003,2009,2013,
            Gaussian, Inc.  All Rights Reserved.
  
 This is part of the Gaussian(R) 09 program.  It is based on
 the Gaussian(R) 03 system (copyright 2003, Gaussian, Inc.),
 the Gaussian(R) 98 system (copyright 1998, Gaussian, Inc.),
 the Gaussian(R) 94 system (copyright 1995, Gaussian, Inc.),
 the Gaussian 92(TM) system (copyright 1992, Gaussian, Inc.),
 the Gaussian 90(TM) system (copyright 1990, Gaussian, Inc.),
 the Gaussian 88(TM) system (copyright 1988, Gaussian, Inc.),
 the Gaussian 86(TM) system (copyright 1986, Carnegie Mellon
 University), and the Gaussian 82(TM) system (copyright 1983,
 Carnegie Mellon University). Gaussian is a federally registered
 trademark of Gaussian, Inc.
  
 This software contains proprietary and confidential information,
 including trade secrets, belonging to Gaussian, Inc.
  
 This software is provided under written license and may be
 used, copied, transmitted, or stored only in accord with that
 written license.
  
 The following legend is applicable only to US Government
 contracts under FAR:
  
                    RESTRICTED RIGHTS LEGEND
  
 Use, reproduction and disclosure by the US Government is
 subject to restrictions as set forth in subparagraphs (a)
 and (c) of the Commercial Computer Software - Restricted
 Rights clause in FAR 52.227-19.
  
 Gaussian, Inc.
 340 Quinnipiac St., Bldg. 40, Wallingford CT 06492
  
  
 ---------------------------------------------------------------
 Warning -- This program may not be used in any manner that
 competes with the business of Gaussian, Inc. or will provide
 assistance to any competitor of Gaussian, Inc.  The licensee
 of this program is prohibited from giving any competitor of
 Gaussian, Inc. access to this program.  By using this program,
 the user acknowledges that Gaussian, Inc. is engaged in the
 business of creating and licensing software in the field of
 computational chemistry and represents and warrants to the
 licensee that it is not a competitor of Gaussian, Inc. and that
 it will not use this program in any manner prohibited above.
 ---------------------------------------------------------------
  

 Cite this work as:
 Gaussian 09, Revision D.01,
 M. J. Frisch, G. W. Trucks, H. B. Schlegel, G. E. Scuseria, 
 M. A. Robb, J. R. Cheeseman, G. Scalmani, V. Barone, B. Mennucci, 
 G. A. Petersson, H. Nakatsuji, M. Caricato, X. Li, H. P. Hratchian, 
 A. F. Izmaylov, J. Bloino, G. Zheng, J. L. Sonnenberg, M. Hada, 
 M. Ehara, K. Toyota, R. Fukuda, J. Hasegawa, M. Ishida, T. Nakajima, 
 Y. Honda, O. Kitao, H. Nakai, T. Vreven, J. A. Montgomery, Jr., 
 J. E. Peralta, F. Ogliaro, M. Bearpark, J. J. Heyd, E. Brothers, 
 K. N. Kudin, V. N. Staroverov, T. Keith, R. Kobayashi, J. Normand, 
 K. Raghavachari, A. Rendell, J. C. Burant, S. S. Iyengar, J. Tomasi, 
 M. Cossi, N. Rega, J. M. Millam, M. Klene, J. E. Knox, J. B. Cross, 
 V. Bakken, C. Adamo, J. Jaramillo, R. Gomperts, R. E. Stratmann, 
 O. Yazyev, A. J. Austin, R. Cammi, C. Pomelli, J. W. Ochterski, 
 R. L. Martin, K. Morokuma, V. G. Zakrzewski, G. A. Voth, 
 P. Salvador, J. J. Dannenberg, S. Dapprich, A. D. Daniels, 
 O. Farkas, J. B. Foresman, J. V. Ortiz, J. Cioslowski, 
 and D. J. Fox, Gaussian, Inc., Wallingford CT, 2013.
 
 ******************************************
 Gaussian 09:  ES64L-G09RevD.01 24-Apr-2013
                17-Oct-2017 
 ******************************************
 %LindaWorkers=ic-node0059
 %Mem=11800mb
 %NProcShared=8
 Will use up to    8 processors via shared memory.
 %chk=dimer.chk
 SetLPE:  input flags=" -workerwait 250000 -opt "Tsnet.Node.lindarsharg: ssh " "
 SetLPE:    new flags=" -workerwait 250000 -opt "Tsnet.Node.lindarsharg: ssh "  -nodelist 'ic-node0059'"
 Will use up to    1 processors via Linda.
 -------------------------------------------------------------
 # Opt=(Z-mat,maxcycle=200) m06/def2svp Integral=SuperFineGrid
 -------------------------------------------------------------
 1/6=200,10=7,14=-1,18=40,26=5,38=1/1,3;
 2/12=2,17=6,18=5,29=3,40=1/2;
 3/5=43,7=101,11=2,16=1,25=1,30=1,71=1,74=-54,75=-7/1,2,3;
 4//1;
 5/5=2,38=5/2;
 6/7=2,8=2,9=2,10=2,28=1/1;
 7/29=1/1,2,3,16;
 1/6=200,10=7,14=-1,18=40,26=5/3(2);
 2/29=3/2;
 99//99;
 2/29=3/2;
 3/5=43,7=101,11=2,16=1,25=1,30=1,71=1,74=-54,75=-7/1,2,3;
 4/5=5,16=3,69=1/1;
 5/5=2,38=5/2;
 7//1,2,3,16;
 1/6=200,14=-1,18=40,26=5/3(-5);
 2/29=3/2;
 6/7=2,8=2,9=2,10=2,19=2,28=1/1;
 99/9=1/99;
 ------
 C12H24
 ------
 Symbolic Z-matrix:
 Charge =  0 Multiplicity = 1
 C
 C                    1    B1
 H                    1    B2       2    A2
 H                    1    B3       2    A3       3    D3       0
 H                    1    B4       2    A4       3    D4       0
 C                    2    B5       1    A5       3    D5       0
 H                    2    B6       1    A6       3    D6       0
 H                    2    B7       1    A7       3    D7       0
 C                    6    B8       2    A8       1    D8       0
 H                    6    B9       2    A9       1    D9       0
 H                    6    B10      2    A10      1    D10      0
 C                    9    B11      6    A11      2    D11      0
 H                    9    B12      6    A12      2    D12      0
 H                    9    B13      6    A13      2    D13      0
 C                    12   B14      9    A14      6    D14      0
 H                    12   B15      9    A15      6    D15      0
 H                    12   B16      9    A16      6    D16      0
 C                    15   B17      12   A17      9    D17      0
 H                    15   B18      12   A18      9    D18      0
 H                    15   B19      12   A19      9    D19      0
 C                    18   B20      15   A20      12   D20      0
 H                    18   B21      15   A21      12   D21      0
 H                    18   B22      15   A22      12   D22      0
 C                    21   B23      18   A23      15   D23      0
 H                    21   B24      18   A24      15   D24      0
 H                    21   B25      18   A25      15   D25      0
 C                    24   B26      21   A26      18   D26      0
 H                    24   B27      21   A27      18   D27      0
 H                    24   B28      21   A28      18   D28      0
 C                    27   B29      24   A29      21   D29      0
 H                    27   B30      24   A30      21   D30      0
 H                    27   B31      24   A31      21   D31      0
 C                    30   B32      27   A32      24   D32      0
 H                    33   B33      30   A33      27   D33      0
 H                    33   B34      30   A34      27   D34      0
 H                    30   B35      27   A35      24   D35      0
       Variables:
  B1                    1.52037                  
  B2                    1.09449                  
  A2                  110.2615                   
  B3                    1.09469                  
  A3                  110.99941                  
  D3                  240.2622                   
  B4                    1.09468                  
  A4                  111.00291                  
  D4                  119.74267                  
  B5                    1.52846                  
  A5                  111.49348                  
  D5                  180.02355                  
  B6                    1.09622                  
  A6                  109.14402                  
  D6                   58.466                    
  B7                    1.09622                  
  A7                  109.14651                  
  D7                  301.57536                  
  B8                    1.52957                  
  A8                  111.33085                  
  D8                  180.06732                  
  B9                    1.09685                  
  A9                  109.56808                  
  D9                   58.69294                  
  B10                   1.09685                  
  A10                 109.56982                  
  D10                 301.43153                  
  B11                   1.52959                  
  A11                 111.32932                  
  D11                 180.0495                   
  B12                   1.09682                  
  A12                 109.56214                  
  D12                  58.69169                  
  B13                   1.09682                  
  A13                 109.57144                  
  D13                 301.40424                  
  B14                   1.52958                  
  A14                 111.33412                  
  D14                 180.11548                  
  B15                   1.09681                  
  A15                 109.56324                  
  D15                  58.75236                  
  B16                   1.09681                  
  A16                 109.56894                  
  D16                 301.4668                   
  B17                   1.52958                  
  A17                 111.32441                  
  D17                 180.06818                  
  B18                   1.09681                  
  A18                 109.56207                  
  D18                  58.71257                  
  B19                   1.09681                  
  A19                 109.57415                  
  D19                 301.42268                  
  B20                   1.5296                   
  A20                 111.33392                  
  D20                 180.12584                  
  B21                   1.09681                  
  A21                 109.56096                  
  D21                  58.76319                  
  B22                   1.09681                  
  A22                 109.57002                  
  D22                 301.47796                  
  B23                   1.53006                  
  A23                 111.33208                  
  D23                 180.06793                  
  B24                   1.09681                  
  A24                 109.55355                  
  D24                  58.71484                  
  B25                   1.09681                  
  A25                 109.57481                  
  D25                 301.41764                  
  B26                   1.52997                  
  A26                 111.27387                  
  D26                 180.07455                  
  B27                   1.09745                  
  A27                 109.45602                  
  D27                  58.51678                  
  B28                   1.09744                  
  A28                 109.4982                   
  D28                 301.54273                  
  B29                   1.50175                  
  A29                 111.29171                  
  D29                 180.59371                  
  B30                   1.0969                   
  A30                 109.65896                  
  D30                  57.82495                  
  B31                   1.09657                  
  A31                 109.82846                  
  D31                 300.6713                   
  B32                   1.33889                  
  A32                 124.10415                  
  D32                 241.95558                  
  B33                   1.08555                  
  A33                 121.75919                  
  B34                   1.08571                  
  A34                 120.7488                   
  B35                   1.08828                  
  A35                 116.90896                  
  D35                  62.58421                  
       Constants:
  D33                 150.                       
  D34                 330.                       
 

 GradGradGradGradGradGradGradGradGradGradGradGradGradGradGradGradGradGrad
 Berny optimization.
 Initialization pass.
                       ----------------------------
                       !    Initial Parameters    !
                       ! (Angstroms and Degrees)  !
 ----------------------                            ----------------------
 !      Name          Value   Derivative information (Atomic Units)     !
 ------------------------------------------------------------------------
 !       B1          1.5204   estimate D2E/DX2                          !
 !       B2          1.0945   estimate D2E/DX2                          !
 !       A2        110.2615   estimate D2E/DX2                          !
 !       B3          1.0947   estimate D2E/DX2                          !
 !       A3        110.9994   estimate D2E/DX2                          !
 !       D3        240.2622   estimate D2E/DX2                          !
 !       B4          1.0947   estimate D2E/DX2                          !
 !       A4        111.0029   estimate D2E/DX2                          !
 !       D4        119.7427   estimate D2E/DX2                          !
 !       B5          1.5285   estimate D2E/DX2                          !
 !       A5        111.4935   estimate D2E/DX2                          !
 !       D5        180.0236   estimate D2E/DX2                          !
 !       B6          1.0962   estimate D2E/DX2                          !
 !       A6        109.144    estimate D2E/DX2                          !
 !       D6         58.466    estimate D2E/DX2                          !
 !       B7          1.0962   estimate D2E/DX2                          !
 !       A7        109.1465   estimate D2E/DX2                          !
 !       D7        301.5754   estimate D2E/DX2                          !
 !       B8          1.5296   estimate D2E/DX2                          !
 !       A8        111.3308   estimate D2E/DX2                          !
 !       D8        180.0673   estimate D2E/DX2                          !
 !       B9          1.0969   estimate D2E/DX2                          !
 !       A9        109.5681   estimate D2E/DX2                          !
 !       D9         58.6929   estimate D2E/DX2                          !
 !       B10         1.0969   estimate D2E/DX2                          !
 !       A10       109.5698   estimate D2E/DX2                          !
 !       D10       301.4315   estimate D2E/DX2                          !
 !       B11         1.5296   estimate D2E/DX2                          !
 !       A11       111.3293   estimate D2E/DX2                          !
 !       D11       180.0495   estimate D2E/DX2                          !
 !       B12         1.0968   estimate D2E/DX2                          !
 !       A12       109.5621   estimate D2E/DX2                          !
 !       D12        58.6917   estimate D2E/DX2                          !
 !       B13         1.0968   estimate D2E/DX2                          !
 !       A13       109.5714   estimate D2E/DX2                          !
 !       D13       301.4042   estimate D2E/DX2                          !
 !       B14         1.5296   estimate D2E/DX2                          !
 !       A14       111.3341   estimate D2E/DX2                          !
 !       D14       180.1155   estimate D2E/DX2                          !
 !       B15         1.0968   estimate D2E/DX2                          !
 !       A15       109.5632   estimate D2E/DX2                          !
 !       D15        58.7524   estimate D2E/DX2                          !
 !       B16         1.0968   estimate D2E/DX2                          !
 !       A16       109.5689   estimate D2E/DX2                          !
 !       D16       301.4668   estimate D2E/DX2                          !
 !       B17         1.5296   estimate D2E/DX2                          !
 !       A17       111.3244   estimate D2E/DX2                          !
 !       D17       180.0682   estimate D2E/DX2                          !
 !       B18         1.0968   estimate D2E/DX2                          !
 !       A18       109.5621   estimate D2E/DX2                          !
 !       D18        58.7126   estimate D2E/DX2                          !
 !       B19         1.0968   estimate D2E/DX2                          !
 !       A19       109.5742   estimate D2E/DX2                          !
 !       D19       301.4227   estimate D2E/DX2                          !
 !       B20         1.5296   estimate D2E/DX2                          !
 !       A20       111.3339   estimate D2E/DX2                          !
 !       D20       180.1258   estimate D2E/DX2                          !
 !       B21         1.0968   estimate D2E/DX2                          !
 !       A21       109.561    estimate D2E/DX2                          !
 !       D21        58.7632   estimate D2E/DX2                          !
 !       B22         1.0968   estimate D2E/DX2                          !
 !       A22       109.57     estimate D2E/DX2                          !
 !       D22       301.478    estimate D2E/DX2                          !
 !       B23         1.5301   estimate D2E/DX2                          !
 !       A23       111.3321   estimate D2E/DX2                          !
 !       D23       180.0679   estimate D2E/DX2                          !
 !       B24         1.0968   estimate D2E/DX2                          !
 !       A24       109.5536   estimate D2E/DX2                          !
 !       D24        58.7148   estimate D2E/DX2                          !
 !       B25         1.0968   estimate D2E/DX2                          !
 !       A25       109.5748   estimate D2E/DX2                          !
 !       D25       301.4176   estimate D2E/DX2                          !
 !       B26         1.53     estimate D2E/DX2                          !
 !       A26       111.2739   estimate D2E/DX2                          !
 !       D26       180.0745   estimate D2E/DX2                          !
 !       B27         1.0975   estimate D2E/DX2                          !
 !       A27       109.456    estimate D2E/DX2                          !
 !       D27        58.5168   estimate D2E/DX2                          !
 !       B28         1.0974   estimate D2E/DX2                          !
 !       A28       109.4982   estimate D2E/DX2                          !
 !       D28       301.5427   estimate D2E/DX2                          !
 !       B29         1.5018   estimate D2E/DX2                          !
 !       A29       111.2917   estimate D2E/DX2                          !
 !       D29       180.5937   estimate D2E/DX2                          !
 !       B30         1.0969   estimate D2E/DX2                          !
 !       A30       109.659    estimate D2E/DX2                          !
 !       D30        57.8249   estimate D2E/DX2                          !
 !       B31         1.0966   estimate D2E/DX2                          !
 !       A31       109.8285   estimate D2E/DX2                          !
 !       D31       300.6713   estimate D2E/DX2                          !
 !       B32         1.3389   estimate D2E/DX2                          !
 !       A32       124.1042   estimate D2E/DX2                          !
 !       D32       241.9556   estimate D2E/DX2                          !
 !       B33         1.0856   estimate D2E/DX2                          !
 !       A33       121.7592   estimate D2E/DX2                          !
 !       B34         1.0857   estimate D2E/DX2                          !
 !       A34       120.7488   estimate D2E/DX2                          !
 !       B35         1.0883   estimate D2E/DX2                          !
 !       A35       116.909    estimate D2E/DX2                          !
 !       D35        62.5842   estimate D2E/DX2                          !
 !       D33       150.0      Frozen                                    !
 !       D34       330.0      Frozen                                    !
 ------------------------------------------------------------------------
 Trust Radius=3.00D-01 FncErr=1.00D-07 GrdErr=1.00D-07
 Number of steps in this run=    200 maximum allowed number of steps=    204.
 GradGradGradGradGradGradGradGradGradGradGradGradGradGradGradGradGradGrad

 ---------------------------------------------------------------------------------------------------
                            Z-MATRIX (ANGSTROMS AND DEGREES)
   CD    Cent   Atom    N1       Length/X        N2       Alpha/Y        N3        Beta/Z          J
 ---------------------------------------------------------------------------------------------------
      1      1  C 
      2      2  C        1   1.520370(     1)
      3      3  H        1   1.094490(     2)      2  110.262(    36)
      4      4  H        1   1.094690(     3)      2  110.999(    37)      3  240.262(    70)      0
      5      5  H        1   1.094680(     4)      2  111.003(    38)      3  119.743(    71)      0
      6      6  C        2   1.528460(     5)      1  111.493(    39)      3  180.024(    72)      0
      7      7  H        2   1.096220(     6)      1  109.144(    40)      3   58.466(    73)      0
      8      8  H        2   1.096220(     7)      1  109.147(    41)      3  301.575(    74)      0
      9      9  C        6   1.529570(     8)      2  111.331(    42)      1  180.067(    75)      0
     10     10  H        6   1.096850(     9)      2  109.568(    43)      1   58.693(    76)      0
     11     11  H        6   1.096850(    10)      2  109.570(    44)      1  301.432(    77)      0
     12     12  C        9   1.529590(    11)      6  111.329(    45)      2  180.050(    78)      0
     13     13  H        9   1.096820(    12)      6  109.562(    46)      2   58.692(    79)      0
     14     14  H        9   1.096820(    13)      6  109.571(    47)      2  301.404(    80)      0
     15     15  C       12   1.529580(    14)      9  111.334(    48)      6  180.115(    81)      0
     16     16  H       12   1.096810(    15)      9  109.563(    49)      6   58.752(    82)      0
     17     17  H       12   1.096810(    16)      9  109.569(    50)      6  301.467(    83)      0
     18     18  C       15   1.529580(    17)     12  111.324(    51)      9  180.068(    84)      0
     19     19  H       15   1.096810(    18)     12  109.562(    52)      9   58.713(    85)      0
     20     20  H       15   1.096810(    19)     12  109.574(    53)      9  301.423(    86)      0
     21     21  C       18   1.529600(    20)     15  111.334(    54)     12  180.126(    87)      0
     22     22  H       18   1.096810(    21)     15  109.561(    55)     12   58.763(    88)      0
     23     23  H       18   1.096810(    22)     15  109.570(    56)     12  301.478(    89)      0
     24     24  C       21   1.530060(    23)     18  111.332(    57)     15  180.068(    90)      0
     25     25  H       21   1.096810(    24)     18  109.554(    58)     15   58.715(    91)      0
     26     26  H       21   1.096810(    25)     18  109.575(    59)     15  301.418(    92)      0
     27     27  C       24   1.529970(    26)     21  111.274(    60)     18  180.075(    93)      0
     28     28  H       24   1.097450(    27)     21  109.456(    61)     18   58.517(    94)      0
     29     29  H       24   1.097440(    28)     21  109.498(    62)     18  301.543(    95)      0
     30     30  C       27   1.501750(    29)     24  111.292(    63)     21  180.594(    96)      0
     31     31  H       27   1.096900(    30)     24  109.659(    64)     21   57.825(    97)      0
     32     32  H       27   1.096570(    31)     24  109.828(    65)     21  300.671(    98)      0
     33     33  C       30   1.338890(    32)     27  124.104(    66)     24  241.956(    99)      0
     34     34  H       33   1.085550(    33)     30  121.759(    67)     27  150.000(   100)      0
     35     35  H       33   1.085710(    34)     30  120.749(    68)     27  330.000(   101)      0
     36     36  H       30   1.088280(    35)     27  116.909(    69)     24   62.584(   102)      0
 ---------------------------------------------------------------------------------------------------
                         Z-Matrix orientation:                         
 ---------------------------------------------------------------------
 Center     Atomic      Atomic             Coordinates (Angstroms)
 Number     Number       Type             X           Y           Z
 ---------------------------------------------------------------------
      1          6           0        0.000000    0.000000    0.000000
      2          6           0        0.000000    0.000000    1.520370
      3          1           0        1.026765    0.000000   -0.379028
      4          1           0       -0.506937    0.887394   -0.392291
      5          1           0       -0.506996   -0.887322   -0.392350
      6          6           0       -1.422170   -0.000585    2.080391
      7          1           0        0.541621    0.882669    1.879869
      8          1           0        0.542250   -0.882265    1.879914
      9          6           0       -1.417829    0.001091    3.609954
     10          1           0       -1.960390   -0.883823    1.715305
     11          1           0       -1.961845    0.881033    1.713538
     12          6           0       -2.841064   -0.000725    4.170352
     13          1           0       -0.880476    0.884957    3.974709
     14          1           0       -0.877544   -0.880117    3.976802
     15          6           0       -2.836857    0.003823    5.699919
     16          1           0       -3.377699   -0.885606    3.807035
     17          1           0       -3.382035    0.879433    3.802024
     18          6           0       -4.260172    0.000310    6.260077
     19          1           0       -2.301279    0.889417    6.063059
     20          1           0       -2.294922   -0.875633    6.068507
     21          6           0       -4.256232    0.007986    7.789653
     22          1           0       -4.794941   -0.886396    5.898461
     23          1           0       -4.802856    0.878620    5.889863
     24          6           0       -5.680003    0.002782    8.349950
     25          1           0       -3.722490    0.895453    8.150919
     26          1           0       -3.712685   -0.869677    8.160135
     27          6           0       -5.674519    0.012323    9.879880
     28          1           0       -6.213070   -0.884521    7.985355
     29          1           0       -6.223979    0.879534    7.976089
     30          6           0       -7.071612   -0.007278   10.430335
     31          1           0       -5.128482    0.892261   10.241464
     32          1           0       -5.141577   -0.869376   10.255440
     33          6           0       -7.595135    0.967368   11.184400
     34          1           0       -8.657814    1.188823   11.174901
     35          1           0       -6.963767    1.568054   11.831947
     36          1           0       -7.679357   -0.880293   10.200458
 ---------------------------------------------------------------------
                    Distance matrix (angstroms):
                    1          2          3          4          5
     1  C    0.000000
     2  C    1.520370   0.000000
     3  H    1.094490   2.159157   0.000000
     4  H    1.094690   2.168577   1.771972   0.000000
     5  H    1.094680   2.168613   1.771988   1.774717   0.000000
     6  C    2.520038   1.528460   3.470738   2.782142   2.781779
     7  H    2.146244   1.096220   2.473274   2.502440   3.065199
     8  H    2.146276   1.096220   2.473047   3.065192   2.502823
     9  C    3.878402   2.525193   4.678463   4.199193   4.199682
    10  H    2.750735   2.159230   3.753727   3.113149   2.560191
    11  H    2.749776   2.159252   3.753244   2.559554   3.111018
    12  C    5.046135   3.885106   5.971344   5.201405   5.201170
    13  H    4.166137   2.753574   4.834847   4.382948   4.727755
    14  H    4.166491   2.752953   4.834693   4.727624   4.384843
    15  C    6.366856   5.051376   7.202859   6.582116   6.583171
    16  H    5.165913   4.173965   6.140580   5.386942   5.086823
    17  H    5.164005   4.173428   6.139390   5.085128   5.383311
    18  C    7.572162   6.372903   8.487015   7.689454   7.689539
    19  H    6.545810   5.169427   7.305301   6.700091   6.931707
    20  H    6.546768   5.169037   7.305548   6.931599   6.703692
    21  C    8.876613   7.577564   9.728179   9.042941   9.044530
    22  H    7.653038   6.553231   8.607254   7.817088   7.613197
    23  H    7.650482   6.552241   8.605547   7.610549   7.812756
    24  C   10.098718   8.882882  11.007988  10.196564  10.197063
    25  H    9.005346   7.656563   9.803941   9.128324   9.300814
    26  H    9.007118   7.656817   9.804898   9.300974   9.133551
    27  C   11.393522  10.103550  12.253675  11.532006  11.533922
    28  H   10.156304   9.010030  11.097769  10.290024  10.136332
    29  H   10.155269   9.010427  11.097515  10.134812  10.287684
    30  C   12.601572  11.375202  13.506520  12.689548  12.688545
    31  H   11.488475  10.156522  12.307642  11.594631  11.730433
    32  H   11.505028  10.173154  12.324616  11.744799  11.612713
    33  C   13.554065  12.329451  14.456342  13.574562  13.700465
    34  H   14.186242  13.022327  15.122752  14.153713  14.302011
    35  H   13.818387  12.541191  14.677033  13.841458  14.041090
    36  H   12.798312  11.622882  13.729421  12.914127  12.792592
                    6          7          8          9         10
     6  C    0.000000
     7  H    2.162596   0.000000
     8  H    2.162521   1.764935   0.000000
     9  C    1.529570   2.758590   2.759577   0.000000
    10  H    1.096850   3.067188   2.508049   2.160357   0.000000
    11  H    1.096850   2.508986   3.067147   2.160241   1.764858
    12  C    2.526103   4.179624   4.179717   1.529590   2.753671
    13  H    2.160106   2.531941   3.087943   1.096820   3.065894
    14  H    2.160225   3.085219   2.532343   1.096820   2.507378
    15  C    3.886174   5.174869   5.176481   2.526184   4.175316
    16  H    2.754752   4.711883   4.368044   2.160130   2.526678
    17  H    2.753093   4.369184   4.711486   2.160203   3.079698
    18  C    5.052132   6.559116   6.559576   3.886138   5.169685
    19  H    4.174516   5.057787   5.359405   2.754511   4.707818
    20  H    4.175222   5.355585   5.059042   2.753620   4.366045
    21  C    6.373983   7.662246   7.664398   5.052372   6.554687
    22  H    5.170871   6.910685   6.680894   4.174899   5.053066
    23  H    5.168570   6.681580   6.910178   4.174500   5.349089
    24  C    7.578689   9.019133   9.020039   6.374456   7.657682
    25  H    6.553295   7.583462   7.789339   5.170272   6.905647
    26  H    6.554775   7.785345   7.585896   5.169986   6.678816
    27  C    8.883393  10.168485  10.170937   7.578358   9.014328
    28  H    7.655238   9.275008   9.105535   6.551548   7.576200
    29  H    7.654491   9.106989   9.276268   6.552394   7.777212
    30  C   10.081558  11.483196  11.482430   8.859059  10.141236
    31  H    9.007611  10.102794  10.257762   7.651148   9.267507
    32  H    9.023315  10.272224  10.122030   7.667235   9.113400
    33  C   11.041984  12.360756  12.498466   9.821662  11.173228
    34  H   11.682438  13.081321  13.241124  10.538336  11.774350
    35  H   11.325316  12.483768  12.703831  10.040616  11.549542
    36  H   10.288916  11.828979  11.697277   9.133363  10.232518
                   11         12         13         14         15
    11  H    0.000000
    12  C    2.754352   0.000000
    13  H    2.506446   2.160234   0.000000
    14  H    3.065897   2.160139   1.765078   0.000000
    15  C    4.174491   1.529580   2.753212   2.754885   0.000000
    16  H    3.083567   1.096810   3.065801   2.505919   2.160233
    17  H    2.525611   1.096810   2.507518   3.065785   2.160074
    18  C    5.170010   2.526029   4.174668   4.175006   1.529580
    19  H    4.362754   2.160107   2.525848   3.083949   1.096810
    20  H    4.707714   2.160261   3.079663   2.526699   1.096810
    21  C    6.553289   3.886145   5.169004   5.171276   2.526189
    22  H    5.353860   2.754707   4.707605   4.363349   2.160092
    23  H    5.051043   2.752925   4.364965   4.707550   2.160208
    24  C    7.657544   5.052586   6.554115   6.554963   3.886662
    25  H    6.673826   4.174322   5.051523   5.354402   2.754406
    26  H    6.905725   4.175306   5.349574   5.053554   2.753678
    27  C    9.012644   6.373959   7.656068   7.658573   5.052175
    28  H    7.779832   5.167763   6.903107   6.673556   4.172671
    29  H    7.575310   5.167456   6.675634   6.904711   4.173777
    30  C   10.143045   7.555459   8.988957   8.987569   6.349024
    31  H    9.096881   6.548902   7.570854   7.775461   5.163962
    32  H    9.281094   6.563171   7.789881   7.589689   5.179477
    33  C   11.019920   8.528498   9.852567  10.024405   7.324559
    34  H   11.595177   9.182229  10.602928  10.799340   8.078564
    35  H   11.308113   8.840690   9.960383  10.234205   7.555129
    36  H   10.383642   7.781061   9.386205   9.219466   6.669807
                   16         17         18         19         20
    16  H    0.000000
    17  H    1.765051   0.000000
    18  C    2.753366   2.754271   0.000000
    19  H    3.065784   2.506075   2.160229   0.000000
    20  H    2.507341   3.065781   2.160135   1.765070   0.000000
    21  C    4.175114   4.174306   1.529600   2.753160   2.754971
    22  H    2.526388   3.083748   1.096810   3.065771   2.505818
    23  H    3.079243   2.525432   1.096810   2.507588   3.065787
    24  C    5.169905   5.170378   2.526558   4.175137   4.175568
    25  H    4.707482   4.362231   2.160015   2.525676   3.084013
    26  H    4.366000   4.707638   2.160287   3.079644   2.526855
    27  C    6.554472   6.553449   3.886321   5.168768   5.170755
    28  H    5.049524   5.350379   2.751966   4.705761   4.361911
    29  H    5.347714   5.049700   2.752139   4.364327   4.707119
    30  C    7.634432   7.637653   5.029443   6.529413   6.526588
    31  H    6.901300   6.672079   4.171449   5.045013   5.344912
    32  H    6.685317   6.913819   4.182840   5.360662   5.062992
    33  C    8.697460   8.500437   6.025457   7.366079   7.593502
    34  H    9.298835   9.071322   6.701292   8.162482   8.415678
    35  H    9.125763   8.819449   6.388504   7.448450   7.809415
    36  H    7.705852   7.905921   5.290831   7.012394   6.787134
                   21         22         23         24         25
    21  C    0.000000
    22  H    2.160262   0.000000
    23  H    2.160093   1.765055   0.000000
    24  C    1.530060   2.753865   2.754724   0.000000
    25  H    1.096810   3.065731   2.505963   2.160632   0.000000
    26  H    1.096810   2.507335   3.065803   2.160452   1.765182
    27  C    2.525986   4.175291   4.174985   1.529970   2.753114
    28  H    2.159649   2.523137   3.080334   1.097450   3.065731
    29  H    2.160181   3.078506   2.524268   1.097440   2.507641
    30  C    3.860025   5.147228   5.152471   2.502934   4.150575
    31  H    2.748480   4.704950   4.363789   2.161753   2.519365
    32  H    2.762916   4.370779   4.714709   2.163667   3.091510
    33  C    4.857262   6.262482   5.986387   3.554190   4.919812
    34  H    5.676989   6.860696   6.548936   4.272517   5.795511
    35  H    5.109276   6.777492   6.360285   4.027708   4.950579
    36  H    4.280048   5.179486   5.472593   2.863847   4.796945
                   26         27         28         29         30
    26  H    0.000000
    27  C    2.753949   0.000000
    28  H    2.506530   2.164161   0.000000
    29  H    3.065976   2.162957   1.764112   0.000000
    30  C    4.144867   1.501750   2.735795   2.743764   0.000000
    31  H    3.072595   1.096900   3.069742   2.516387   2.149557
    32  H    2.536145   1.096570   2.510302   3.070134   2.121046
    33  C    5.253030   2.510508   3.946326   3.490136   1.338890
    34  H    6.146587   3.458508   4.522027   4.031329   2.121573
    35  H    5.476702   2.809453   4.623304   3.986100   2.111355
    36  H    4.460663   2.217862   2.656445   3.187936   1.088280
                   31         32         33         34         35
    31  H    0.000000
    32  H    1.761741   0.000000
    33  C    2.641807   3.202584   0.000000
    34  H    3.662709   4.176783   1.085550   0.000000
    35  H    2.520834   3.427363   1.085710   1.856157   0.000000
    36  H    3.106541   2.538400   2.095015   2.487601   3.027908
                   36
    36  H    0.000000
 Stoichiometry    C12H24
 Framework group  C1[X(C12H24)]
 Deg. of freedom   102
 Full point group                 C1      NOp   1
 Largest Abelian subgroup         C1      NOp   1
 Largest concise Abelian subgroup C1      NOp   1
                         Standard orientation:                         
 ---------------------------------------------------------------------
 Center     Atomic      Atomic             Coordinates (Angstroms)
 Number     Number       Type             X           Y           Z
 ---------------------------------------------------------------------
      1          6           0       -6.772660   -0.424881    0.088116
      2          6           0       -5.523325    0.441027    0.117948
      3          1           0       -7.668442    0.199457    0.163514
      4          1           0       -6.779999   -1.131873    0.923852
      5          1           0       -6.833063   -0.994486   -0.844743
      6          6           0       -4.253812   -0.403746    0.013620
      7          1           0       -5.509762    1.020617    1.048319
      8          1           0       -5.562839    1.157868   -0.710470
      9          6           0       -2.999343    0.470820    0.045652
     10          1           0       -4.273919   -0.983691   -0.917154
     11          1           0       -4.221789   -1.122592    0.841457
     12          6           0       -1.728951   -0.374514   -0.059982
     13          1           0       -2.978995    1.049819    0.976974
     14          1           0       -3.031705    1.190132   -0.781728
     15          6           0       -0.474316    0.499723   -0.025099
     16          1           0       -1.748555   -0.952027   -0.992230
     17          1           0       -1.697446   -1.095148    0.766267
     18          6           0        0.795875   -0.345683   -0.132434
     19          1           0       -0.454234    1.076214    0.907771
     20          1           0       -0.506135    1.221239   -0.850565
     21          6           0        2.050761    0.528098   -0.094455
     22          1           0        0.776551   -0.920558   -1.066317
     23          1           0        0.826749   -1.068649    0.691798
     24          6           0        3.321275   -0.317470   -0.203510
     25          1           0        2.070405    1.101875    0.840097
     26          1           0        2.019636    1.251874   -0.917967
     27          6           0        4.575630    0.557632   -0.163540
     28          1           0        3.298517   -0.892604   -1.137908
     29          1           0        3.349841   -1.043450    0.618994
     30          6           0        5.822443   -0.270596   -0.284984
     31          1           0        4.588312    1.142234    0.764506
     32          1           0        4.554591    1.275934   -0.991830
     33          6           0        6.769148   -0.345025    0.658857
     34          1           0        7.372723   -1.237187    0.793630
     35          1           0        6.959906    0.493901    1.321111
     36          1           0        5.953313   -0.831218   -1.208525
 ---------------------------------------------------------------------
 Rotational constants (GHZ):      6.3359079      0.1582097      0.1569887
 Standard basis: def2SVP (5D, 7F)
 There are   300 symmetry adapted cartesian basis functions of A   symmetry.
 There are   288 symmetry adapted basis functions of A   symmetry.
   288 basis functions,   468 primitive gaussians,   300 cartesian basis functions
    48 alpha electrons       48 beta electrons
       nuclear repulsion energy       654.7038126019 Hartrees.
 NAtoms=   36 NActive=   36 NUniq=   36 SFac= 1.00D+00 NAtFMM=   60 NAOKFM=F Big=F
 Integral buffers will be    131072 words long.
 Raffenetti 2 integral format.
 Two-electron integral symmetry is turned on.
 One-electron integrals computed using PRISM.
   1 Symmetry operations used in ECPInt.
 ECPInt:  NShTT=   10440 NPrTT=   35208 LenC2=    8755 LenP2D=   21879.
 LDataN:  DoStor=T MaxTD1= 4 Len=   56
 NBasis=   288 RedAO= T EigKep=  7.65D-04  NBF=   288
 NBsUse=   288 1.00D-06 EigRej= -1.00D+00 NBFU=   288
 ExpMin= 1.22D-01 ExpMax= 1.24D+03 ExpMxC= 1.86D+02 IAcc=3 IRadAn=         7 AccDes= 0.00D+00
 Harris functional with IExCor= 1009 and IRadAn=       7 diagonalized for initial guess.
 HarFok:  IExCor= 1009 AccDes= 0.00D+00 IRadAn=         7 IDoV= 1 UseB2=F ITyADJ=14
 ICtDFT=  3500011 ScaDFX=  1.000000  1.000000  1.000000  1.000000
 FoFCou: FMM=F IPFlag=           0 FMFlag=      100000 FMFlg1=           0
         NFxFlg=           0 DoJE=T BraDBF=F KetDBF=T FulRan=T
         wScrn=  0.000000 ICntrl=     500 IOpCl=  0 I1Cent=   200000004 NGrid=           0
         NMat0=    1 NMatS0=      1 NMatT0=    0 NMatD0=    1 NMtDS0=    0 NMtDT0=    0
 Petite list used in FoFCou.
 Keep R1 ints in memory in canonical form, NReq=879895090.
 Requested convergence on RMS density matrix=1.00D-08 within 128 cycles.
 Requested convergence on MAX density matrix=1.00D-06.
 Requested convergence on             energy=1.00D-06.
 No special actions if energy rises.
 Integral accuracy reduced to 1.0D-05 until final iterations.
 Initial convergence to 1.0D-05 achieved.  Increase integral accuracy.
 SCF Done:  E(RM06) =  -470.957504653     A.U. after   13 cycles
            NFock= 13  Conv=0.28D-08     -V/T= 2.0127

 **********************************************************************

            Population analysis using the SCF density.

 **********************************************************************

 Orbital symmetries:
       Occupied  (A) (A) (A) (A) (A) (A) (A) (A) (A) (A) (A) (A)
                 (A) (A) (A) (A) (A) (A) (A) (A) (A) (A) (A) (A)
                 (A) (A) (A) (A) (A) (A) (A) (A) (A) (A) (A) (A)
                 (A) (A) (A) (A) (A) (A) (A) (A) (A) (A) (A) (A)
       Virtual   (A) (A) (A) (A) (A) (A) (A) (A) (A) (A) (A) (A)
                 (A) (A) (A) (A) (A) (A) (A) (A) (A) (A) (A) (A)
                 (A) (A) (A) (A) (A) (A) (A) (A) (A) (A) (A) (A)
                 (A) (A) (A) (A) (A) (A) (A) (A) (A) (A) (A) (A)
                 (A) (A) (A) (A) (A) (A) (A) (A) (A) (A) (A) (A)
                 (A) (A) (A) (A) (A) (A) (A) (A) (A) (A) (A) (A)
                 (A) (A) (A) (A) (A) (A) (A) (A) (A) (A) (A) (A)
                 (A) (A) (A) (A) (A) (A) (A) (A) (A) (A) (A) (A)
                 (A) (A) (A) (A) (A) (A) (A) (A) (A) (A) (A) (A)
                 (A) (A) (A) (A) (A) (A) (A) (A) (A) (A) (A) (A)
                 (A) (A) (A) (A) (A) (A) (A) (A) (A) (A) (A) (A)
                 (A) (A) (A) (A) (A) (A) (A) (A) (A) (A) (A) (A)
                 (A) (A) (A) (A) (A) (A) (A) (A) (A) (A) (A) (A)
                 (A) (A) (A) (A) (A) (A) (A) (A) (A) (A) (A) (A)
                 (A) (A) (A) (A) (A) (A) (A) (A) (A) (A) (A) (A)
                 (A) (A) (A) (A) (A) (A) (A) (A) (A) (A) (A) (A)
                 (A) (A) (A) (A) (A) (A) (A) (A) (A) (A) (A) (A)
                 (A) (A) (A) (A) (A) (A) (A) (A) (A) (A) (A) (A)
                 (A) (A) (A) (A) (A) (A) (A) (A) (A) (A) (A) (A)
                 (A) (A) (A) (A) (A) (A) (A) (A) (A) (A) (A) (A)
 The electronic state is 1-A.
 Alpha  occ. eigenvalues --  -10.24892 -10.24443 -10.24331 -10.24000 -10.23843
 Alpha  occ. eigenvalues --  -10.23754 -10.23750 -10.23695 -10.23659 -10.23646
 Alpha  occ. eigenvalues --  -10.23600 -10.23208  -0.82240  -0.81049  -0.79041
 Alpha  occ. eigenvalues --   -0.76340  -0.73058  -0.69223  -0.64909  -0.60629
 Alpha  occ. eigenvalues --   -0.58444  -0.57707  -0.57516  -0.55274  -0.49745
 Alpha  occ. eigenvalues --   -0.48506  -0.46887  -0.45490  -0.44625  -0.43799
 Alpha  occ. eigenvalues --   -0.43077  -0.42487  -0.40835  -0.40356  -0.39044
 Alpha  occ. eigenvalues --   -0.37822  -0.37523  -0.36175  -0.35314  -0.34500
 Alpha  occ. eigenvalues --   -0.34330  -0.34011  -0.33609  -0.33393  -0.33082
 Alpha  occ. eigenvalues --   -0.32935  -0.30321  -0.24832
 Alpha virt. eigenvalues --    0.00537   0.06304   0.07039   0.07927   0.08225
 Alpha virt. eigenvalues --    0.08735   0.09238   0.09681   0.10255   0.10972
 Alpha virt. eigenvalues --    0.11269   0.12691   0.13493   0.13882   0.14892
 Alpha virt. eigenvalues --    0.15398   0.15914   0.16202   0.16237   0.16896
 Alpha virt. eigenvalues --    0.17151   0.18239   0.18673   0.19599   0.19739
 Alpha virt. eigenvalues --    0.20484   0.20777   0.22673   0.23192   0.23576
 Alpha virt. eigenvalues --    0.26047   0.26575   0.28220   0.32451   0.32952
 Alpha virt. eigenvalues --    0.35031   0.38540   0.40465   0.41479   0.42275
 Alpha virt. eigenvalues --    0.42746   0.43116   0.43445   0.43787   0.44233
 Alpha virt. eigenvalues --    0.45466   0.47352   0.48230   0.49179   0.50352
 Alpha virt. eigenvalues --    0.51648   0.52657   0.54397   0.55208   0.58631
 Alpha virt. eigenvalues --    0.58913   0.61287   0.61568   0.61784   0.61993
 Alpha virt. eigenvalues --    0.62211   0.62629   0.62943   0.63111   0.63253
 Alpha virt. eigenvalues --    0.64272   0.64381   0.65039   0.65435   0.65676
 Alpha virt. eigenvalues --    0.66101   0.66298   0.66521   0.66589   0.67126
 Alpha virt. eigenvalues --    0.67343   0.67588   0.68054   0.68700   0.69018
 Alpha virt. eigenvalues --    0.69366   0.69978   0.70173   0.70906   0.71196
 Alpha virt. eigenvalues --    0.71647   0.71905   0.72061   0.72916   0.73234
 Alpha virt. eigenvalues --    0.76872   0.82101   0.85336   0.85784   0.86372
 Alpha virt. eigenvalues --    0.93787   0.95822   0.98351   0.98814   1.00722
 Alpha virt. eigenvalues --    1.01204   1.02059   1.02472   1.02955   1.03429
 Alpha virt. eigenvalues --    1.05437   1.07040   1.09391   1.17392   1.18656
 Alpha virt. eigenvalues --    1.23086   1.24007   1.26878   1.31393   1.31767
 Alpha virt. eigenvalues --    1.32462   1.33512   1.33751   1.35330   1.35894
 Alpha virt. eigenvalues --    1.36570   1.37657   1.37920   1.38890   1.43039
 Alpha virt. eigenvalues --    1.50616   1.52645   1.58034   1.58859   1.63645
 Alpha virt. eigenvalues --    1.64734   1.65494   1.66378   1.66706   1.68900
 Alpha virt. eigenvalues --    1.71520   1.72088   1.73157   1.74033   1.74118
 Alpha virt. eigenvalues --    1.74709   1.75379   1.76571   1.76888   1.77826
 Alpha virt. eigenvalues --    1.78189   1.79124   1.79564   1.79954   1.80242
 Alpha virt. eigenvalues --    1.80385   1.80655   1.81553   1.82026   1.82455
 Alpha virt. eigenvalues --    1.82663   1.83962   1.84324   1.85028   1.85715
 Alpha virt. eigenvalues --    1.87049   1.88067   1.89423   1.90802   1.91061
 Alpha virt. eigenvalues --    1.91504   1.92277   1.93165   1.93351   1.94688
 Alpha virt. eigenvalues --    1.96361   1.99215   1.99678   2.01179   2.04125
 Alpha virt. eigenvalues --    2.05777   2.07021   2.09731   2.09879   2.12456
 Alpha virt. eigenvalues --    2.14278   2.15066   2.19105   2.23265   2.23570
 Alpha virt. eigenvalues --    2.26509   2.29368   2.31343   2.34955   2.37242
 Alpha virt. eigenvalues --    2.37762   2.39379   2.40802   2.41350   2.41805
 Alpha virt. eigenvalues --    2.42586   2.43338   2.44139   2.46114   2.46678
 Alpha virt. eigenvalues --    2.48670   2.50773   2.51094   2.53090   2.55212
 Alpha virt. eigenvalues --    2.56657   2.57476   2.57764   2.58834   2.59775
 Alpha virt. eigenvalues --    2.60567   2.61573   2.64648   2.65377   2.71614
 Alpha virt. eigenvalues --    2.74585   2.75389   2.79243   2.79379   2.80631
 Alpha virt. eigenvalues --    2.82331   2.83670   2.85165   2.85752   2.87763
 Alpha virt. eigenvalues --    2.90108   2.91484   2.92528   2.94100   2.95790
 Alpha virt. eigenvalues --    2.96806   2.97687   2.99877   3.00005   3.01186
 Alpha virt. eigenvalues --    3.03809   3.04568   3.05653   3.07357   3.17689
          Condensed to atoms (all electrons):
               1          2          3          4          5          6
     1  C    4.571329   0.421809   0.377977   0.394079   0.394036  -0.058839
     2  C    0.421809   4.673948  -0.014018  -0.023346  -0.023342   0.398622
     3  H    0.377977  -0.014018   0.656417  -0.024831  -0.024836   0.008285
     4  H    0.394079  -0.023346  -0.024831   0.653167  -0.027911  -0.008669
     5  H    0.394036  -0.023342  -0.024836  -0.027911   0.653270  -0.008669
     6  C   -0.058839   0.398622   0.008285  -0.008669  -0.008669   4.751985
     7  H   -0.023831   0.375259  -0.006692  -0.010177   0.008804  -0.022826
     8  H   -0.023801   0.375187  -0.006705   0.008802  -0.010166  -0.022767
     9  C    0.009390  -0.046185  -0.000555   0.000467   0.000470   0.364321
    10  H   -0.004393  -0.027293  -0.000047  -0.001941   0.007552   0.374687
    11  H   -0.004376  -0.027352  -0.000045   0.007554  -0.001947   0.374824
    12  C   -0.000510   0.008369   0.000016  -0.000008  -0.000008  -0.043102
    13  H    0.000294  -0.006636   0.000008  -0.000053   0.000024  -0.022325
    14  H    0.000298  -0.006625   0.000008   0.000024  -0.000053  -0.022304
    15  C    0.000009  -0.000440   0.000000   0.000000   0.000000   0.008162
    16  H    0.000007   0.000318   0.000000   0.000004  -0.000010  -0.007039
    17  H    0.000007   0.000325   0.000000  -0.000010   0.000004  -0.007018
    18  C    0.000000   0.000008   0.000000   0.000000   0.000000  -0.000458
    19  H    0.000000   0.000003   0.000000   0.000000   0.000000   0.000376
    20  H    0.000000   0.000003   0.000000   0.000000   0.000000   0.000385
    21  C    0.000000   0.000000   0.000000   0.000000   0.000000   0.000008
    22  H    0.000000   0.000000   0.000000   0.000000   0.000000   0.000003
    23  H    0.000000   0.000000   0.000000   0.000000   0.000000   0.000004
    24  C    0.000000   0.000000   0.000000   0.000000   0.000000   0.000000
    25  H    0.000000   0.000000   0.000000   0.000000   0.000000   0.000000
    26  H    0.000000   0.000000   0.000000   0.000000   0.000000   0.000000
    27  C    0.000000   0.000000   0.000000   0.000000   0.000000   0.000000
    28  H    0.000000   0.000000   0.000000   0.000000   0.000000   0.000000
    29  H    0.000000   0.000000   0.000000   0.000000   0.000000   0.000000
    30  C    0.000000   0.000000   0.000000   0.000000   0.000000   0.000000
    31  H    0.000000   0.000000   0.000000   0.000000   0.000000   0.000000
    32  H    0.000000   0.000000   0.000000   0.000000   0.000000   0.000000
    33  C    0.000000   0.000000   0.000000   0.000000   0.000000   0.000000
    34  H    0.000000   0.000000   0.000000   0.000000   0.000000   0.000000
    35  H    0.000000   0.000000   0.000000   0.000000   0.000000   0.000000
    36  H    0.000000   0.000000   0.000000   0.000000   0.000000   0.000000
               7          8          9         10         11         12
     1  C   -0.023831  -0.023801   0.009390  -0.004393  -0.004376  -0.000510
     2  C    0.375259   0.375187  -0.046185  -0.027293  -0.027352   0.008369
     3  H   -0.006692  -0.006705  -0.000555  -0.000047  -0.000045   0.000016
     4  H   -0.010177   0.008802   0.000467  -0.001941   0.007554  -0.000008
     5  H    0.008804  -0.010166   0.000470   0.007552  -0.001947  -0.000008
     6  C   -0.022826  -0.022767   0.364321   0.374687   0.374824  -0.043102
     7  H    0.690976  -0.034877  -0.007352   0.009503  -0.011836   0.000362
     8  H   -0.034877   0.691054  -0.007368  -0.011877   0.009502   0.000357
     9  C   -0.007352  -0.007368   4.749692  -0.020962  -0.020976   0.364248
    10  H    0.009503  -0.011877  -0.020962   0.696278  -0.037156  -0.007316
    11  H   -0.011836   0.009502  -0.020976  -0.037156   0.696079  -0.007332
    12  C    0.000362   0.000357   0.364248  -0.007316  -0.007332   4.747289
    13  H    0.007902  -0.002030   0.372296   0.009441  -0.011951  -0.021275
    14  H   -0.002039   0.007900   0.372171  -0.011927   0.009441  -0.021190
    15  C    0.000004   0.000004  -0.044219   0.000436   0.000430   0.367124
    16  H    0.000015  -0.000040  -0.021613   0.007734  -0.002009   0.371747
    17  H   -0.000040   0.000015  -0.021686  -0.002020   0.007740   0.371970
    18  C    0.000000   0.000000   0.008391   0.000001   0.000001  -0.045489
    19  H   -0.000013   0.000005  -0.007099   0.000014  -0.000040  -0.021283
    20  H    0.000005  -0.000012  -0.007093  -0.000040   0.000014  -0.021233
    21  C    0.000000   0.000000  -0.000459   0.000000   0.000000   0.008414
    22  H    0.000000   0.000000   0.000388  -0.000012   0.000005  -0.007164
    23  H    0.000000   0.000000   0.000390   0.000005  -0.000012  -0.007092
    24  C    0.000000   0.000000   0.000008   0.000000   0.000000  -0.000450
    25  H    0.000000   0.000000   0.000003   0.000000   0.000000   0.000385
    26  H    0.000000   0.000000   0.000002   0.000000   0.000000   0.000388
    27  C    0.000000   0.000000   0.000000   0.000000   0.000000   0.000007
    28  H    0.000000   0.000000   0.000000   0.000000   0.000000   0.000000
    29  H    0.000000   0.000000   0.000000   0.000000   0.000000  -0.000003
    30  C    0.000000   0.000000   0.000000   0.000000   0.000000   0.000000
    31  H    0.000000   0.000000   0.000000   0.000000   0.000000   0.000000
    32  H    0.000000   0.000000   0.000000   0.000000   0.000000   0.000000
    33  C    0.000000   0.000000   0.000000   0.000000   0.000000   0.000000
    34  H    0.000000   0.000000   0.000000   0.000000   0.000000   0.000000
    35  H    0.000000   0.000000   0.000000   0.000000   0.000000   0.000000
    36  H    0.000000   0.000000   0.000000   0.000000   0.000000   0.000000
              13         14         15         16         17         18
     1  C    0.000294   0.000298   0.000009   0.000007   0.000007   0.000000
     2  C   -0.006636  -0.006625  -0.000440   0.000318   0.000325   0.000008
     3  H    0.000008   0.000008   0.000000   0.000000   0.000000   0.000000
     4  H   -0.000053   0.000024   0.000000   0.000004  -0.000010   0.000000
     5  H    0.000024  -0.000053   0.000000  -0.000010   0.000004   0.000000
     6  C   -0.022325  -0.022304   0.008162  -0.007039  -0.007018  -0.000458
     7  H    0.007902  -0.002039   0.000004   0.000015  -0.000040   0.000000
     8  H   -0.002030   0.007900   0.000004  -0.000040   0.000015   0.000000
     9  C    0.372296   0.372171  -0.044219  -0.021613  -0.021686   0.008391
    10  H    0.009441  -0.011927   0.000436   0.007734  -0.002020   0.000001
    11  H   -0.011951   0.009441   0.000430  -0.002009   0.007740   0.000001
    12  C   -0.021275  -0.021190   0.367124   0.371747   0.371970  -0.045489
    13  H    0.695877  -0.036318  -0.007213   0.009377  -0.011855   0.000401
    14  H   -0.036318   0.696060  -0.007240  -0.011925   0.009373   0.000394
    15  C   -0.007213  -0.007240   4.742616  -0.021122  -0.021168   0.368783
    16  H    0.009377  -0.011925  -0.021122   0.695981  -0.036180  -0.007225
    17  H   -0.011855   0.009373  -0.021168  -0.036180   0.695536  -0.007211
    18  C    0.000401   0.000394   0.368783  -0.007225  -0.007211   4.740908
    19  H    0.007780  -0.001993   0.371951   0.009363  -0.011911  -0.021476
    20  H   -0.002006   0.007776   0.371742  -0.011887   0.009364  -0.021528
    21  C    0.000003   0.000003  -0.044702   0.000398   0.000392   0.370023
    22  H    0.000014  -0.000040  -0.020888   0.007783  -0.001992   0.372117
    23  H   -0.000040   0.000014  -0.020848  -0.002003   0.007772   0.371548
    24  C    0.000000   0.000000   0.008265   0.000004   0.000002  -0.045053
    25  H   -0.000012   0.000005  -0.007127   0.000014  -0.000040  -0.020477
    26  H    0.000005  -0.000012  -0.007085  -0.000039   0.000014  -0.021581
    27  C    0.000000   0.000000  -0.000436   0.000000   0.000000   0.008284
    28  H    0.000000   0.000000   0.000458  -0.000012   0.000005  -0.007237
    29  H    0.000000   0.000000   0.000421   0.000005  -0.000012  -0.007276
    30  C    0.000000   0.000000   0.000007   0.000000   0.000000  -0.000413
    31  H    0.000000   0.000000   0.000009   0.000000   0.000000   0.000323
    32  H    0.000000   0.000000  -0.000009   0.000000   0.000000   0.000497
    33  C    0.000000   0.000000   0.000000   0.000000   0.000000   0.000003
    34  H    0.000000   0.000000   0.000000   0.000000   0.000000  -0.000001
    35  H    0.000000   0.000000   0.000000   0.000000   0.000000   0.000000
    36  H    0.000000   0.000000   0.000000   0.000000   0.000000  -0.000004
              19         20         21         22         23         24
     1  C    0.000000   0.000000   0.000000   0.000000   0.000000   0.000000
     2  C    0.000003   0.000003   0.000000   0.000000   0.000000   0.000000
     3  H    0.000000   0.000000   0.000000   0.000000   0.000000   0.000000
     4  H    0.000000   0.000000   0.000000   0.000000   0.000000   0.000000
     5  H    0.000000   0.000000   0.000000   0.000000   0.000000   0.000000
     6  C    0.000376   0.000385   0.000008   0.000003   0.000004   0.000000
     7  H   -0.000013   0.000005   0.000000   0.000000   0.000000   0.000000
     8  H    0.000005  -0.000012   0.000000   0.000000   0.000000   0.000000
     9  C   -0.007099  -0.007093  -0.000459   0.000388   0.000390   0.000008
    10  H    0.000014  -0.000040   0.000000  -0.000012   0.000005   0.000000
    11  H   -0.000040   0.000014   0.000000   0.000005  -0.000012   0.000000
    12  C   -0.021283  -0.021233   0.008414  -0.007164  -0.007092  -0.000450
    13  H    0.007780  -0.002006   0.000003   0.000014  -0.000040   0.000000
    14  H   -0.001993   0.007776   0.000003  -0.000040   0.000014   0.000000
    15  C    0.371951   0.371742  -0.044702  -0.020888  -0.020848   0.008265
    16  H    0.009363  -0.011887   0.000398   0.007783  -0.002003   0.000004
    17  H   -0.011911   0.009364   0.000392  -0.001992   0.007772   0.000002
    18  C   -0.021476  -0.021528   0.370023   0.372117   0.371548  -0.045053
    19  H    0.695306  -0.036135  -0.007209   0.009349  -0.011852   0.000398
    20  H   -0.036135   0.695800  -0.007134  -0.011908   0.009348   0.000373
    21  C   -0.007209  -0.007134   4.737608  -0.022083  -0.021408   0.372506
    22  H    0.009349  -0.011908  -0.022083   0.694723  -0.035981  -0.006893
    23  H   -0.011852   0.009348  -0.021408  -0.035981   0.694022  -0.006776
    24  C    0.000398   0.000373   0.372506  -0.006893  -0.006776   4.763910
    25  H    0.007759  -0.001994   0.371752   0.009317  -0.011870  -0.021407
    26  H   -0.001990   0.007732   0.372392  -0.011799   0.009326  -0.023161
    27  C    0.000002   0.000004  -0.045736   0.000293   0.000370   0.405621
    28  H    0.000012  -0.000042  -0.017736   0.007683  -0.002008   0.370634
    29  H   -0.000034   0.000009  -0.020800  -0.002025   0.007255   0.367793
    30  C    0.000000   0.000000   0.008384   0.000006  -0.000009  -0.060203
    31  H   -0.000012   0.000005  -0.004374   0.000015  -0.000038  -0.028873
    32  H    0.000006  -0.000013  -0.010738  -0.000052   0.000000  -0.020549
    33  C    0.000000   0.000000  -0.000038   0.000001  -0.000007  -0.005324
    34  H    0.000000   0.000000   0.000012   0.000000   0.000000  -0.000168
    35  H    0.000000   0.000000   0.000006   0.000000   0.000000  -0.000298
    36  H    0.000000   0.000000   0.000411  -0.000008   0.000001  -0.008045
              25         26         27         28         29         30
     1  C    0.000000   0.000000   0.000000   0.000000   0.000000   0.000000
     2  C    0.000000   0.000000   0.000000   0.000000   0.000000   0.000000
     3  H    0.000000   0.000000   0.000000   0.000000   0.000000   0.000000
     4  H    0.000000   0.000000   0.000000   0.000000   0.000000   0.000000
     5  H    0.000000   0.000000   0.000000   0.000000   0.000000   0.000000
     6  C    0.000000   0.000000   0.000000   0.000000   0.000000   0.000000
     7  H    0.000000   0.000000   0.000000   0.000000   0.000000   0.000000
     8  H    0.000000   0.000000   0.000000   0.000000   0.000000   0.000000
     9  C    0.000003   0.000002   0.000000   0.000000   0.000000   0.000000
    10  H    0.000000   0.000000   0.000000   0.000000   0.000000   0.000000
    11  H    0.000000   0.000000   0.000000   0.000000   0.000000   0.000000
    12  C    0.000385   0.000388   0.000007   0.000000  -0.000003   0.000000
    13  H   -0.000012   0.000005   0.000000   0.000000   0.000000   0.000000
    14  H    0.000005  -0.000012   0.000000   0.000000   0.000000   0.000000
    15  C   -0.007127  -0.007085  -0.000436   0.000458   0.000421   0.000007
    16  H    0.000014  -0.000039   0.000000  -0.000012   0.000005   0.000000
    17  H   -0.000040   0.000014   0.000000   0.000005  -0.000012   0.000000
    18  C   -0.020477  -0.021581   0.008284  -0.007237  -0.007276  -0.000413
    19  H    0.007759  -0.001990   0.000002   0.000012  -0.000034   0.000000
    20  H   -0.001994   0.007732   0.000004  -0.000042   0.000009   0.000000
    21  C    0.371752   0.372392  -0.045736  -0.017736  -0.020800   0.008384
    22  H    0.009317  -0.011799   0.000293   0.007683  -0.002025   0.000006
    23  H   -0.011870   0.009326   0.000370  -0.002008   0.007255  -0.000009
    24  C   -0.021407  -0.023161   0.405621   0.370634   0.367793  -0.060203
    25  H    0.692607  -0.036091  -0.007062   0.009248  -0.011949   0.000147
    26  H   -0.036091   0.694227  -0.005939  -0.012002   0.009376   0.000569
    27  C   -0.007062  -0.005939   4.715108  -0.025297  -0.035614   0.366211
    28  H    0.009248  -0.012002  -0.025297   0.690678  -0.036228  -0.006249
    29  H   -0.011949   0.009376  -0.035614  -0.036228   0.689750   0.008706
    30  C    0.000147   0.000569   0.366211  -0.006249   0.008706   4.776564
    31  H    0.007432  -0.002040   0.378315   0.009262  -0.010744  -0.026651
    32  H   -0.002021   0.008494   0.342259  -0.011268   0.010669  -0.013804
    33  C    0.000044  -0.000019  -0.056001   0.000064   0.003382   0.685298
    34  H    0.000002  -0.000001   0.010916   0.000058  -0.000437  -0.018255
    35  H   -0.000021   0.000006  -0.023241   0.000012   0.000374  -0.024252
    36  H    0.000007  -0.000019  -0.055550   0.005941  -0.000524   0.398078
              31         32         33         34         35         36
     1  C    0.000000   0.000000   0.000000   0.000000   0.000000   0.000000
     2  C    0.000000   0.000000   0.000000   0.000000   0.000000   0.000000
     3  H    0.000000   0.000000   0.000000   0.000000   0.000000   0.000000
     4  H    0.000000   0.000000   0.000000   0.000000   0.000000   0.000000
     5  H    0.000000   0.000000   0.000000   0.000000   0.000000   0.000000
     6  C    0.000000   0.000000   0.000000   0.000000   0.000000   0.000000
     7  H    0.000000   0.000000   0.000000   0.000000   0.000000   0.000000
     8  H    0.000000   0.000000   0.000000   0.000000   0.000000   0.000000
     9  C    0.000000   0.000000   0.000000   0.000000   0.000000   0.000000
    10  H    0.000000   0.000000   0.000000   0.000000   0.000000   0.000000
    11  H    0.000000   0.000000   0.000000   0.000000   0.000000   0.000000
    12  C    0.000000   0.000000   0.000000   0.000000   0.000000   0.000000
    13  H    0.000000   0.000000   0.000000   0.000000   0.000000   0.000000
    14  H    0.000000   0.000000   0.000000   0.000000   0.000000   0.000000
    15  C    0.000009  -0.000009   0.000000   0.000000   0.000000   0.000000
    16  H    0.000000   0.000000   0.000000   0.000000   0.000000   0.000000
    17  H    0.000000   0.000000   0.000000   0.000000   0.000000   0.000000
    18  C    0.000323   0.000497   0.000003  -0.000001   0.000000  -0.000004
    19  H   -0.000012   0.000006   0.000000   0.000000   0.000000   0.000000
    20  H    0.000005  -0.000013   0.000000   0.000000   0.000000   0.000000
    21  C   -0.004374  -0.010738  -0.000038   0.000012   0.000006   0.000411
    22  H    0.000015  -0.000052   0.000001   0.000000   0.000000  -0.000008
    23  H   -0.000038   0.000000  -0.000007   0.000000   0.000000   0.000001
    24  C   -0.028873  -0.020549  -0.005324  -0.000168  -0.000298  -0.008045
    25  H    0.007432  -0.002021   0.000044   0.000002  -0.000021   0.000007
    26  H   -0.002040   0.008494  -0.000019  -0.000001   0.000006  -0.000019
    27  C    0.378315   0.342259  -0.056001   0.010916  -0.023241  -0.055550
    28  H    0.009262  -0.011268   0.000064   0.000058   0.000012   0.005941
    29  H   -0.010744   0.010669   0.003382  -0.000437   0.000374  -0.000524
    30  C   -0.026651  -0.013804   0.685298  -0.018255  -0.024252   0.398078
    31  H    0.684428  -0.031336  -0.010107  -0.000017   0.006951   0.008458
    32  H   -0.031336   0.697373   0.004439  -0.000579   0.001271  -0.003231
    33  C   -0.010107   0.004439   4.745713   0.382234   0.391567  -0.041094
    34  H   -0.000017  -0.000579   0.382234   0.642130  -0.049070  -0.014473
    35  H    0.006951   0.001271   0.391567  -0.049070   0.643733   0.009590
    36  H    0.008458  -0.003231  -0.041094  -0.014473   0.009590   0.667555
 Mulliken charges:
               1
     1  C   -0.053486
     2  C   -0.078613
     3  H    0.035018
     4  H    0.032849
     5  H    0.032782
     6  C   -0.057644
     7  H    0.026854
     8  H    0.026816
     9  C   -0.036669
    10  H    0.019332
    11  H    0.019441
    12  C   -0.037221
    13  H    0.018295
    14  H    0.018200
    15  C   -0.037924
    16  H    0.018355
    17  H    0.018620
    18  C   -0.036253
    19  H    0.018725
    20  H    0.018469
    21  C   -0.039896
    22  H    0.019146
    23  H    0.019887
    24  C   -0.062315
    25  H    0.021351
    26  H    0.019244
    27  C    0.027487
    28  H    0.024020
    29  H    0.027909
    30  C   -0.094135
    31  H    0.018993
    32  H    0.028592
    33  C   -0.100156
    34  H    0.047650
    35  H    0.043371
    36  H    0.032908
 Sum of Mulliken charges =   0.00000
 Mulliken charges with hydrogens summed into heavy atoms:
               1
     1  C    0.047162
     2  C   -0.024943
     6  C   -0.018871
     9  C   -0.000175
    12  C   -0.000246
    15  C   -0.000730
    18  C    0.002780
    21  C    0.000698
    24  C   -0.010386
    27  C    0.075073
    30  C   -0.061227
    33  C   -0.009135
 Electronic spatial extent (au):  <R**2>=           6921.0585
 Charge=              0.0000 electrons
 Dipole moment (field-independent basis, Debye):
    X=             -0.5104    Y=              0.1165    Z=             -0.1643  Tot=              0.5487
 Quadrupole moment (field-independent basis, Debye-Ang):
   XX=            -86.1520   YY=            -80.6409   ZZ=            -78.4329
   XY=             -0.4182   XZ=             -0.2600   YZ=              0.4631
 Traceless Quadrupole moment (field-independent basis, Debye-Ang):
   XX=             -4.4101   YY=              1.1010   ZZ=              3.3090
   XY=             -0.4182   XZ=             -0.2600   YZ=              0.4631
 Octapole moment (field-independent basis, Debye-Ang**2):
  XXX=            -34.4028  YYY=             -0.0382  ZZZ=             -1.5985  XYY=              1.6153
  XXY=             -0.6102  XXZ=              3.5233  XZZ=             -0.5677  YZZ=              0.2725
  YYZ=              0.2471  XYZ=              3.6788
 Hexadecapole moment (field-independent basis, Debye-Ang**3):
 XXXX=          -9634.7147 YYYY=           -280.0593 ZZZZ=           -191.1975 XXXY=            -89.0809
 XXXZ=             59.4359 YYYX=             -2.1299 YYYZ=             -1.4619 ZZZX=             -8.4000
 ZZZY=              2.4308 XXYY=          -1571.8360 XXZZ=          -1537.0026 YYZZ=            -72.8574
 XXYZ=             19.2733 YYXZ=              1.9967 ZZXY=              3.8187
 N-N= 6.547038126019D+02 E-N=-2.395702076447D+03  KE= 4.650727093678D+02
   1 Symmetry operations used in ECPInt.
 ECPInt:  NShTT=   10440 NPrTT=   35208 LenC2=    8755 LenP2D=   21879.
 LDataN:  DoStor=T MaxTD1= 5 Len=  102
 Calling FoFJK, ICntrl=      2127 FMM=F ISym2X=0 I1Cent= 0 IOpClX= 0 NMat=1 NMatS=1 NMatT=0.
 ***** Axes restored to original set *****
 -------------------------------------------------------------------
 Center     Atomic                   Forces (Hartrees/Bohr)
 Number     Number              X              Y              Z
 -------------------------------------------------------------------
      1        6           0.005897409    0.000007008    0.008759004
      2        6          -0.015540733   -0.000015444   -0.013121733
      3        1           0.003362660   -0.000000794   -0.004684348
      4        1          -0.002698541    0.003584122   -0.002778974
      5        1          -0.002699463   -0.003592042   -0.002780680
      6        6           0.021455577    0.000036604    0.014426878
      7        1           0.003035698    0.003845280    0.004288152
      8        1           0.003048041   -0.003840097    0.004286995
      9        6          -0.021490664   -0.000059323   -0.014595987
     10        1          -0.003899757   -0.004382673   -0.002727981
     11        1          -0.003905060    0.004368321   -0.002737360
     12        6           0.021473938    0.000099756    0.014603288
     13        1           0.003871537    0.004297265    0.002625977
     14        1           0.003901087   -0.004277234    0.002629372
     15        6          -0.021430547   -0.000128484   -0.014371192
     16        1          -0.003897582   -0.004316342   -0.002620850
     17        1          -0.003911057    0.004276401   -0.002643646
     18        6           0.020631476    0.000273804    0.014674347
     19        1           0.003864887    0.004308363    0.002628501
     20        1           0.003922304   -0.004267424    0.002645897
     21        6          -0.020544001   -0.000408879   -0.012736210
     22        1          -0.003851999   -0.004312126   -0.002640576
     23        1          -0.003884834    0.004218852   -0.002667291
     24        6           0.016310109   -0.000197912    0.010820444
     25        1           0.003848259    0.004274625    0.002613527
     26        1           0.003947100   -0.004185479    0.002682010
     27        6          -0.010536605   -0.010689086    0.009052320
     28        1          -0.003636952   -0.003908248   -0.002217559
     29        1          -0.003887221    0.003745687   -0.001529404
     30        6           0.009208013    0.011328238    0.004347590
     31        1           0.001432456    0.004451152    0.002428918
     32        1           0.008119037   -0.006102664   -0.001788176
     33        6           0.000888584   -0.006729479   -0.004693812
     34        1          -0.009454958   -0.010025857    0.014818292
     35        1           0.006570425    0.017885660   -0.008785906
     36        1          -0.009518623    0.000438449   -0.018209825
 -------------------------------------------------------------------
 Cartesian Forces:  Max     0.021490664 RMS     0.008365002
 -----------------------------------------------------------------------------------------------
                       Internal Coordinate Forces (Hartree/Bohr or radian)
  Cent   Atom   N1       Length/X         N2         Alpha/Y        N3         Beta/Z          J
 -----------------------------------------------------------------------------------------------
      1  C 
      2  C        1   0.001485(     1)
      3  H        1   0.004777(     2)      2   0.006681(    36)
      4  H        1   0.005151(     3)      2   0.002068(    37)      3  -0.001092(    70)     0
      5  H        1   0.005159(     4)      2   0.002065(    38)      3   0.001085(    71)     0
      6  C        2  -0.002996(     5)      1   0.010383(    39)      3  -0.000011(    72)     0
      7  H        2   0.006002(     6)      1   0.005087(    40)      3  -0.001128(    73)     0
      8  H        2   0.006004(     7)      1   0.005082(    41)      3   0.001147(    74)     0
      9  C        6  -0.002953(     8)      2   0.011580(    42)      1  -0.000038(    75)     0
     10  H        6   0.006351(     9)      2   0.001108(    43)      1  -0.002175(    76)     0
     11  H        6   0.006348(    10)      2   0.001106(    44)      1   0.002177(    77)     0
     12  C        9  -0.002920(    11)      6   0.011660(    45)      2  -0.000024(    78)     0
     13  H        9   0.006233(    12)      6   0.001220(    46)      2  -0.002099(    79)     0
     14  H        9   0.006238(    13)      6   0.001202(    47)      2   0.002125(    80)     0
     15  C       12  -0.002950(    14)      9   0.011616(    48)      6  -0.000046(    81)     0
     16  H       12   0.006257(    15)      9   0.001267(    49)      6  -0.002105(    82)     0
     17  H       12   0.006248(    16)      9   0.001260(    50)      6   0.002103(    83)     0
     18  C       15  -0.002989(    17)     12   0.011479(    51)      9  -0.000046(    84)     0
     19  H       15   0.006236(    18)     12   0.001240(    52)      9  -0.002104(    85)     0
     20  H       15   0.006249(    19)     12   0.001211(    53)      9   0.002144(    86)     0
     21  C       18  -0.003217(    20)     15   0.011030(    54)     12  -0.000057(    87)     0
     22  H       18   0.006235(    21)     15   0.001187(    55)     12  -0.002143(    88)     0
     23  H       18   0.006201(    22)     15   0.001213(    56)     12   0.002150(    89)     0
     24  C       21  -0.003560(    23)     18   0.009917(    57)     15  -0.000150(    90)     0
     25  H       21   0.006192(    24)     18   0.001259(    58)     15  -0.002139(    91)     0
     26  H       21   0.006211(    25)     18   0.001298(    59)     15   0.002243(    92)     0
     27  C       24  -0.002839(    26)     21   0.008756(    60)     18   0.000955(    93)     0
     28  H       24   0.005663(    27)     21   0.001538(    61)     18  -0.001747(    94)     0
     29  H       24   0.005440(    28)     21   0.002703(    62)     18   0.000840(    95)     0
     30  C       27  -0.002613(    29)     24  -0.005123(    63)     21  -0.009873(    96)     0
     31  H       27   0.005084(    30)     24   0.001654(    64)     21   0.002205(    97)     0
     32  H       27   0.008240(    31)     24  -0.010116(    65)     21   0.007455(    98)     0
     33  C       30   0.002357(    32)     27   0.003552(    66)     24   0.037486(    99)     0
     34  H       33   0.007081(    33)     30   0.002455(    67)     27   0.032999(   100)     0
     35  H       33   0.008476(    34)     30   0.002790(    68)     27   0.033759(   101)     0
     36  H       30   0.008810(    35)     27  -0.004180(    69)     24  -0.033847(   102)     0
 -----------------------------------------------------------------------------------------------
 Internal  Forces:  Max     0.037485730 RMS     0.008466860

 GradGradGradGradGradGradGradGradGradGradGradGradGradGradGradGradGradGrad
 Berny optimization.
 Search for a local minimum.
 Step number   1 out of a maximum of  200
 All quantities printed in internal units (Hartrees-Bohrs-Radians)
 Second derivative matrix not updated -- first step.
 ITU=  0
     Eigenvalues ---    0.01015   0.01016   0.01028   0.01028   0.01028
     Eigenvalues ---    0.01030   0.01039   0.01073   0.01312   0.01978
     Eigenvalues ---    0.08427   0.13370   0.15083   0.15094   0.15113
     Eigenvalues ---    0.15114   0.15115   0.15120   0.15130   0.15296
     Eigenvalues ---    0.15819   0.16000   0.17236   0.17287   0.17292
     Eigenvalues ---    0.17292   0.17293   0.17293   0.17305   0.17324
     Eigenvalues ---    0.17542   0.19880   0.20947   0.23861   0.29418
     Eigenvalues ---    0.29426   0.29460   0.29461   0.29462   0.29462
     Eigenvalues ---    0.29463   0.29566   0.30331   0.32194   0.33834
     Eigenvalues ---    0.33966   0.33967   0.34027   0.34033   0.34033
     Eigenvalues ---    0.34036   0.34036   0.34037   0.34037   0.34037
     Eigenvalues ---    0.34037   0.34037   0.34037   0.34037   0.34037
     Eigenvalues ---    0.34064   0.34104   0.34104   0.34276   0.34277
     Eigenvalues ---    0.34299   0.35012   0.35313   0.35332   0.36582
     Eigenvalues ---    0.36627   0.36659   0.36681   0.36682   0.36682
     Eigenvalues ---    0.36685   0.36693   0.37162   0.39241   0.39324
     Eigenvalues ---    0.39326   0.39326   0.39328   0.39331   0.39338
     Eigenvalues ---    0.39352   0.39419   0.39725   0.42862   0.42864
     Eigenvalues ---    0.42864   0.42864   0.42871   0.42883   0.42892
     Eigenvalues ---    0.42923   0.43146   0.48000   0.53120   0.57454
     Eigenvalues --- 1000.000001000.00000
 RFO step:  Lambda=-1.89746817D-02 EMin= 1.01474700D-02
 Linear search not attempted -- first point.
 Variable       Old X    -DE/DX   Delta X   Delta X   Delta X     New X
                                 (Linear)    (Quad)   (Total)
    B1        2.87308   0.00148   0.00000   0.00461   0.00461   2.87769
    B2        2.06829   0.00478   0.00000   0.01320   0.01320   2.08148
    A2        1.92443   0.00668   0.00000   0.02912   0.02912   1.95355
    B3        2.06866   0.00515   0.00000   0.01424   0.01424   2.08290
    A3        1.93731   0.00207   0.00000   0.00075   0.00075   1.93806
    D3        4.19337  -0.00109   0.00000  -0.00927  -0.00927   4.18410
    B4        2.06865   0.00516   0.00000   0.01426   0.01426   2.08291
    A4        1.93737   0.00206   0.00000   0.00045   0.00045   1.93781
    D4        2.08990   0.00108   0.00000   0.00828   0.00828   2.09818
    B5        2.88837  -0.00300   0.00000  -0.00952  -0.00952   2.87885
    A5        1.94593   0.01038   0.00000   0.02863   0.02863   1.97456
    D5        3.14200  -0.00001   0.00000   0.00394   0.00394   3.14594
    B6        2.07156   0.00600   0.00000   0.01667   0.01667   2.08823
    A6        1.90492   0.00509   0.00000   0.01042   0.01042   1.91534
    D6        1.02042  -0.00113   0.00000  -0.00273  -0.00273   1.01770
    B7        2.07156   0.00600   0.00000   0.01668   0.01668   2.08823
    A7        1.90497   0.00508   0.00000   0.01088   0.01088   1.91585
    D7        5.26348   0.00115   0.00000   0.00981   0.00981   5.27329
    B8        2.89047  -0.00295   0.00000  -0.00942  -0.00942   2.88105
    A8        1.94309   0.01158   0.00000   0.03828   0.03828   1.98137
    D8        3.14277  -0.00004   0.00000   0.00915   0.00915   3.15191
    B9        2.07275   0.00635   0.00000   0.01768   0.01768   2.09042
    A9        1.91232   0.00111   0.00000  -0.00496  -0.00496   1.90736
    D9        1.02439  -0.00217   0.00000  -0.00688  -0.00688   1.01751
   B10        2.07275   0.00635   0.00000   0.01767   0.01767   2.09041
   A10        1.91235   0.00111   0.00000  -0.00577  -0.00577   1.90659
   D10        5.26097   0.00218   0.00000   0.02101   0.02101   5.28199
   B11        2.89051  -0.00292   0.00000  -0.00931  -0.00931   2.88120
   A11        1.94306   0.01166   0.00000   0.03916   0.03916   1.98223
   D11        3.14246  -0.00002   0.00000   0.00377   0.00377   3.14623
   B12        2.07269   0.00623   0.00000   0.01735   0.01735   2.09004
   A12        1.91222   0.00122   0.00000  -0.00535  -0.00535   1.90687
   D12        1.02436  -0.00210   0.00000  -0.01052  -0.01052   1.01384
[...]
     4  H   -0.009860   0.008655   0.000446  -0.001922   0.007743  -0.000007
     5  H    0.008651  -0.009917   0.000440   0.007721  -0.001914  -0.000007
     6  C   -0.024669  -0.024711   0.366705   0.372496   0.372547  -0.039129
     7  H    0.692839  -0.036039  -0.007343   0.009828  -0.012026   0.000331
     8  H   -0.036039   0.692899  -0.007312  -0.012002   0.009828   0.000335
     9  C   -0.007343  -0.007312   4.747581  -0.021943  -0.022036   0.368633
    10  H    0.009828  -0.012002  -0.021943   0.700011  -0.038210  -0.007504
    11  H   -0.012026   0.009828  -0.022036  -0.038210   0.699951  -0.007492
    12  C    0.000331   0.000335   0.368633  -0.007504  -0.007492   4.743302
    13  H    0.008386  -0.002093   0.370197   0.009712  -0.012016  -0.022391
    14  H   -0.002084   0.008367   0.370064  -0.012076   0.009714  -0.022367
    15  C    0.000004   0.000004  -0.040804   0.000400   0.000407   0.372421
    16  H    0.000020  -0.000042  -0.022816   0.008128  -0.002033   0.369844
    17  H   -0.000042   0.000020  -0.022827  -0.002022   0.008139   0.369997
    18  C    0.000000   0.000000   0.007942   0.000001   0.000001  -0.042167
    19  H   -0.000011   0.000004  -0.007121   0.000018  -0.000041  -0.022574
    20  H    0.000004  -0.000011  -0.007156  -0.000041   0.000018  -0.022481
    21  C    0.000000   0.000000  -0.000408   0.000000   0.000000   0.007967
    22  H    0.000000   0.000000   0.000361  -0.000011   0.000005  -0.007191
    23  H    0.000000   0.000000   0.000346   0.000005  -0.000011  -0.007092
    24  C    0.000000   0.000000   0.000006   0.000000   0.000000  -0.000394
    25  H    0.000000   0.000000   0.000003   0.000000   0.000000   0.000346
    26  H    0.000000   0.000000   0.000002   0.000000   0.000000   0.000358
    27  C    0.000000   0.000000   0.000000   0.000000   0.000000   0.000006
    28  H    0.000000   0.000000   0.000000   0.000000   0.000000  -0.000001
    29  H    0.000000   0.000000   0.000000   0.000000   0.000000  -0.000004
    30  C    0.000000   0.000000   0.000000   0.000000   0.000000   0.000000
    31  H    0.000000   0.000000   0.000000   0.000000   0.000000   0.000000
    32  H    0.000000   0.000000   0.000000   0.000000   0.000000   0.000000
    33  C    0.000000   0.000000   0.000000   0.000000   0.000000   0.000000
    34  H    0.000000   0.000000   0.000000   0.000000   0.000000   0.000000
    35  H    0.000000   0.000000   0.000000   0.000000   0.000000   0.000000
    36  H    0.000000   0.000000   0.000000   0.000000   0.000000   0.000000
              13         14         15         16         17         18
     1  C    0.000275   0.000267   0.000007   0.000007   0.000007   0.000000
     2  C   -0.006700  -0.006703  -0.000377   0.000296   0.000291   0.000006
     3  H    0.000008   0.000008   0.000000   0.000000   0.000000   0.000000
     4  H   -0.000051   0.000025   0.000000   0.000003  -0.000009   0.000000
     5  H    0.000025  -0.000050   0.000000  -0.000009   0.000003   0.000000
     6  C   -0.023560  -0.023475   0.007670  -0.007065  -0.007086  -0.000402
     7  H    0.008386  -0.002084   0.000004   0.000020  -0.000042   0.000000
     8  H   -0.002093   0.008367   0.000004  -0.000042   0.000020   0.000000
     9  C    0.370197   0.370064  -0.040804  -0.022816  -0.022827   0.007942
    10  H    0.009712  -0.012076   0.000400   0.008128  -0.002022   0.000001
    11  H   -0.012016   0.009714   0.000407  -0.002033   0.008139   0.000001
    12  C   -0.022391  -0.022367   0.372421   0.369844   0.369997  -0.042167
    13  H    0.699389  -0.037453  -0.007298   0.009660  -0.012037   0.000363
    14  H   -0.037453   0.699512  -0.007280  -0.012011   0.009658   0.000368
    15  C   -0.007298  -0.007280   4.738290  -0.022346  -0.022435   0.373838
    16  H    0.009660  -0.012011  -0.022346   0.699158  -0.037342  -0.007276
    17  H   -0.012037   0.009658  -0.022435  -0.037342   0.698864  -0.007220
    18  C    0.000363   0.000368   0.373838  -0.007276  -0.007220   4.737202
    19  H    0.008188  -0.002030   0.370027   0.009647  -0.012005  -0.022671
    20  H   -0.002020   0.008179   0.369718  -0.012066   0.009650  -0.022586
    21  C    0.000003   0.000003  -0.041300   0.000358   0.000366   0.373474
    22  H    0.000019  -0.000041  -0.022081   0.008174  -0.002027   0.369899
    23  H   -0.000040   0.000019  -0.022519  -0.002015   0.008163   0.370512
    24  C    0.000000   0.000000   0.007732   0.000004   0.000003  -0.040587
    25  H   -0.000011   0.000005  -0.007039   0.000019  -0.000040  -0.022341
    26  H    0.000005  -0.000011  -0.007351  -0.000040   0.000019  -0.021932
    27  C    0.000000   0.000000  -0.000387   0.000000   0.000000   0.007892
    28  H    0.000000   0.000000   0.000411  -0.000011   0.000005  -0.007644
    29  H    0.000000   0.000000   0.000412   0.000005  -0.000010  -0.007525
    30  C    0.000000   0.000000   0.000007   0.000000   0.000000  -0.000414
    31  H    0.000000   0.000000   0.000003   0.000000   0.000000   0.000277
    32  H    0.000000   0.000000  -0.000003   0.000000   0.000000   0.000446
    33  C    0.000000   0.000000   0.000000   0.000000   0.000000  -0.000006
    34  H    0.000000   0.000000   0.000000   0.000000   0.000000   0.000000
    35  H    0.000000   0.000000   0.000000   0.000000   0.000000  -0.000001
    36  H    0.000000   0.000000   0.000000   0.000000   0.000000  -0.000008
              19         20         21         22         23         24
     1  C    0.000000   0.000000   0.000000   0.000000   0.000000   0.000000
     2  C    0.000003   0.000003   0.000000   0.000000   0.000000   0.000000
     3  H    0.000000   0.000000   0.000000   0.000000   0.000000   0.000000
     4  H    0.000000   0.000000   0.000000   0.000000   0.000000   0.000000
     5  H    0.000000   0.000000   0.000000   0.000000   0.000000   0.000000
     6  C    0.000352   0.000346   0.000006   0.000003   0.000003   0.000000
     7  H   -0.000011   0.000004   0.000000   0.000000   0.000000   0.000000
     8  H    0.000004  -0.000011   0.000000   0.000000   0.000000   0.000000
     9  C   -0.007121  -0.007156  -0.000408   0.000361   0.000346   0.000006
    10  H    0.000018  -0.000041   0.000000  -0.000011   0.000005   0.000000
    11  H   -0.000041   0.000018   0.000000   0.000005  -0.000011   0.000000
    12  C   -0.022574  -0.022481   0.007967  -0.007191  -0.007092  -0.000394
    13  H    0.008188  -0.002020   0.000003   0.000019  -0.000040   0.000000
    14  H   -0.002030   0.008179   0.000003  -0.000041   0.000019   0.000000
    15  C    0.370027   0.369718  -0.041300  -0.022081  -0.022519   0.007732
    16  H    0.009647  -0.012066   0.000358   0.008174  -0.002015   0.000004
    17  H   -0.012005   0.009650   0.000366  -0.002027   0.008163   0.000003
    18  C   -0.022671  -0.022586   0.373474   0.369899   0.370512  -0.040587
    19  H    0.698782  -0.037305  -0.007255   0.009627  -0.012020   0.000365
    20  H   -0.037305   0.699207  -0.007219  -0.011999   0.009621   0.000368
    21  C   -0.007255  -0.007219   4.737391  -0.022881  -0.023052   0.370347
    22  H    0.009627  -0.011999  -0.022881   0.698136  -0.037135  -0.007032
    23  H   -0.012020   0.009621  -0.023052  -0.037135   0.697103  -0.006750
    24  C    0.000365   0.000368   0.370347  -0.007032  -0.006750   4.767635
    25  H    0.008133  -0.002028   0.370530   0.009591  -0.011967  -0.022992
    26  H   -0.002004   0.008159   0.369539  -0.011973   0.009587  -0.022843
    27  C    0.000002   0.000004  -0.044718   0.000265   0.000354   0.416256
    28  H    0.000017  -0.000042  -0.020109   0.007965  -0.002006   0.369562
    29  H   -0.000036   0.000015  -0.020807  -0.002018   0.007613   0.366621
    30  C    0.000000   0.000000   0.008764   0.000010  -0.000008  -0.059945
    31  H   -0.000011   0.000005  -0.005929   0.000017  -0.000034  -0.026367
    32  H    0.000005  -0.000012  -0.009115  -0.000053   0.000008  -0.024920
    33  C    0.000000   0.000000   0.000324   0.000001  -0.000014  -0.013488
    34  H    0.000000   0.000000   0.000005   0.000000   0.000000   0.000188
    35  H    0.000000   0.000000   0.000020   0.000000   0.000000  -0.001160
    36  H    0.000000   0.000000   0.000505  -0.000011   0.000003  -0.008941
              25         26         27         28         29         30
     1  C    0.000000   0.000000   0.000000   0.000000   0.000000   0.000000
     2  C    0.000000   0.000000   0.000000   0.000000   0.000000   0.000000
     3  H    0.000000   0.000000   0.000000   0.000000   0.000000   0.000000
     4  H    0.000000   0.000000   0.000000   0.000000   0.000000   0.000000
     5  H    0.000000   0.000000   0.000000   0.000000   0.000000   0.000000
     6  C    0.000000   0.000000   0.000000   0.000000   0.000000   0.000000
     7  H    0.000000   0.000000   0.000000   0.000000   0.000000   0.000000
     8  H    0.000000   0.000000   0.000000   0.000000   0.000000   0.000000
     9  C    0.000003   0.000002   0.000000   0.000000   0.000000   0.000000
    10  H    0.000000   0.000000   0.000000   0.000000   0.000000   0.000000
    11  H    0.000000   0.000000   0.000000   0.000000   0.000000   0.000000
    12  C    0.000346   0.000358   0.000006  -0.000001  -0.000004   0.000000
    13  H   -0.000011   0.000005   0.000000   0.000000   0.000000   0.000000
    14  H    0.000005  -0.000011   0.000000   0.000000   0.000000   0.000000
    15  C   -0.007039  -0.007351  -0.000387   0.000411   0.000412   0.000007
    16  H    0.000019  -0.000040   0.000000  -0.000011   0.000005   0.000000
    17  H   -0.000040   0.000019   0.000000   0.000005  -0.000010   0.000000
    18  C   -0.022341  -0.021932   0.007892  -0.007644  -0.007525  -0.000414
    19  H    0.008133  -0.002004   0.000002   0.000017  -0.000036   0.000000
    20  H   -0.002028   0.008159   0.000004  -0.000042   0.000015   0.000000
    21  C    0.370530   0.369539  -0.044718  -0.020109  -0.020807   0.008764
    22  H    0.009591  -0.011973   0.000265   0.007965  -0.002018   0.000010
    23  H   -0.011967   0.009587   0.000354  -0.002006   0.007613  -0.000008
    24  C   -0.022992  -0.022843   0.416256   0.369562   0.366621  -0.059945
    25  H    0.696456  -0.037167  -0.006876   0.009490  -0.011847   0.000360
    26  H   -0.037167   0.696908  -0.006555  -0.011946   0.009435   0.000462
    27  C   -0.006876  -0.006555   4.704277  -0.028231  -0.033982   0.386123
    28  H    0.009490  -0.011946  -0.028231   0.694574  -0.036578  -0.003615
    29  H   -0.011847   0.009435  -0.033982  -0.036578   0.692361   0.005440
    30  C    0.000360   0.000462   0.386123  -0.003615   0.005440   4.720855
    31  H    0.007757  -0.001967   0.372108   0.009683  -0.011975  -0.023464
    32  H   -0.002093   0.008833   0.346789  -0.010939   0.010747  -0.013602
    33  C    0.000003  -0.000007  -0.057413  -0.001201   0.007294   0.702221
    34  H    0.000002  -0.000001   0.009552   0.000054  -0.000649  -0.011731
    35  H   -0.000018   0.000003  -0.017963   0.000078   0.000575  -0.024970
    36  H    0.000013  -0.000034  -0.055212   0.007643  -0.001109   0.386861
              31         32         33         34         35         36
     1  C    0.000000   0.000000   0.000000   0.000000   0.000000   0.000000
     2  C    0.000000   0.000000   0.000000   0.000000   0.000000   0.000000
     3  H    0.000000   0.000000   0.000000   0.000000   0.000000   0.000000
     4  H    0.000000   0.000000   0.000000   0.000000   0.000000   0.000000
     5  H    0.000000   0.000000   0.000000   0.000000   0.000000   0.000000
     6  C    0.000000   0.000000   0.000000   0.000000   0.000000   0.000000
     7  H    0.000000   0.000000   0.000000   0.000000   0.000000   0.000000
     8  H    0.000000   0.000000   0.000000   0.000000   0.000000   0.000000
     9  C    0.000000   0.000000   0.000000   0.000000   0.000000   0.000000
    10  H    0.000000   0.000000   0.000000   0.000000   0.000000   0.000000
    11  H    0.000000   0.000000   0.000000   0.000000   0.000000   0.000000
    12  C    0.000000   0.000000   0.000000   0.000000   0.000000   0.000000
    13  H    0.000000   0.000000   0.000000   0.000000   0.000000   0.000000
    14  H    0.000000   0.000000   0.000000   0.000000   0.000000   0.000000
    15  C    0.000003  -0.000003   0.000000   0.000000   0.000000   0.000000
    16  H    0.000000   0.000000   0.000000   0.000000   0.000000   0.000000
    17  H    0.000000   0.000000   0.000000   0.000000   0.000000   0.000000
    18  C    0.000277   0.000446  -0.000006   0.000000  -0.000001  -0.000008
    19  H   -0.000011   0.000005   0.000000   0.000000   0.000000   0.000000
    20  H    0.000005  -0.000012   0.000000   0.000000   0.000000   0.000000
    21  C   -0.005929  -0.009115   0.000324   0.000005   0.000020   0.000505
    22  H    0.000017  -0.000053   0.000001   0.000000   0.000000  -0.000011
    23  H   -0.000034   0.000008  -0.000014   0.000000   0.000000   0.000003
    24  C   -0.026367  -0.024920  -0.013488   0.000188  -0.001160  -0.008941
    25  H    0.007757  -0.002093   0.000003   0.000002  -0.000018   0.000013
    26  H   -0.001967   0.008833  -0.000007  -0.000001   0.000003  -0.000034
    27  C    0.372108   0.346789  -0.057413   0.009552  -0.017963  -0.055212
    28  H    0.009683  -0.010939  -0.001201   0.000054   0.000078   0.007643
    29  H   -0.011975   0.010747   0.007294  -0.000649   0.000575  -0.001109
    30  C   -0.023464  -0.013602   0.702221  -0.011731  -0.024970   0.386861
    31  H    0.686183  -0.034404  -0.013121  -0.000124   0.007811   0.008925
    32  H   -0.034404   0.696277   0.008174  -0.000460   0.000403  -0.005306
    33  C   -0.013121   0.008174   4.738367   0.378341   0.387265  -0.035676
    34  H   -0.000124  -0.000460   0.378341   0.642796  -0.049028  -0.018368
    35  H    0.007811   0.000403   0.387265  -0.049028   0.644503   0.009825
    36  H    0.008925  -0.005306  -0.035676  -0.018368   0.009825   0.685161
 Mulliken charges:
               1
     1  C   -0.062151
     2  C   -0.077772
     3  H    0.039286
     4  H    0.035088
     5  H    0.035124
     6  C   -0.062597
     7  H    0.028186
     8  H    0.028159
     9  C   -0.039880
    10  H    0.020397
    11  H    0.020417
    12  C   -0.040034
    13  H    0.019440
    14  H    0.019394
    15  C   -0.040132
    16  H    0.019748
    17  H    0.019915
    18  C   -0.039441
    19  H    0.019914
    20  H    0.019667
    21  C   -0.036811
    22  H    0.020378
    23  H    0.021323
    24  C   -0.063670
    25  H    0.021712
    26  H    0.020520
    27  C    0.007707
    28  H    0.022839
    29  H    0.026021
    30  C   -0.073353
    31  H    0.024629
    32  H    0.029226
    33  C   -0.101062
    34  H    0.049424
    35  H    0.042657
    36  H    0.025732
 Sum of Mulliken charges =   0.00000
 Mulliken charges with hydrogens summed into heavy atoms:
               1
     1  C    0.047346
     2  C   -0.021427
     6  C   -0.021783
     9  C   -0.001047
    12  C   -0.000371
    15  C   -0.000551
    18  C    0.002259
    21  C    0.005421
    24  C   -0.014809
    27  C    0.061563
    30  C   -0.047621
    33  C   -0.008982
 Electronic spatial extent (au):  <R**2>=           6896.8668
 Charge=              0.0000 electrons
 Dipole moment (field-independent basis, Debye):
    X=             -0.5822    Y=             -0.0175    Z=             -0.0371  Tot=              0.5836
 Quadrupole moment (field-independent basis, Debye-Ang):
   XX=            -86.4937   YY=            -80.8158   ZZ=            -78.5899
   XY=             -1.4418   XZ=              0.2302   YZ=             -0.0660
 Traceless Quadrupole moment (field-independent basis, Debye-Ang):
   XX=             -4.5273   YY=              1.1507   ZZ=              3.3766
   XY=             -1.4418   XZ=              0.2302   YZ=             -0.0660
 Octapole moment (field-independent basis, Debye-Ang**2):
  XXX=            -53.2960  YYY=             -0.6767  ZZZ=              0.1068  XYY=              1.1917
  XXY=            -11.2738  XXZ=              5.2498  XZZ=              3.1329  YZZ=              0.1691
  YYZ=             -0.3745  XYZ=              2.0499
 Hexadecapole moment (field-independent basis, Debye-Ang**3):
 XXXX=          -9651.9098 YYYY=           -297.0973 ZZZZ=           -193.2167 XXXY=           -149.3410
 XXXZ=             44.1898 YYYX=             -6.6972 YYYZ=             -4.0530 ZZZX=              3.7006
 ZZZY=              3.0660 XXYY=          -1569.7477 XXZZ=          -1520.9335 YYZZ=            -79.8276
 XXYZ=              5.0970 YYXZ=             -2.9386 ZZXY=              2.6979
 N-N= 6.546475002478D+02 E-N=-2.395333531509D+03  KE= 4.648720872166D+02
 1\1\GINC-NODE0059\POpt\RM06\def2SVP\C12H24\JGOODPAS\17-Oct-2017\1\\# O
 pt=(Z-mat,maxcycle=200) m06/def2svp Integral=SuperFineGrid\\C12H24\\0,
 1\C\C,1,B1\H,1,B2,2,A2\H,1,B3,2,A3,3,D3,0\H,1,B4,2,A4,3,D4,0\C,2,B5,1,
 A5,3,D5,0\H,2,B6,1,A6,3,D6,0\H,2,B7,1,A7,3,D7,0\C,6,B8,2,A8,1,D8,0\H,6
 ,B9,2,A9,1,D9,0\H,6,B10,2,A10,1,D10,0\C,9,B11,6,A11,2,D11,0\H,9,B12,6,
 A12,2,D12,0\H,9,B13,6,A13,2,D13,0\C,12,B14,9,A14,6,D14,0\H,12,B15,9,A1
 5,6,D15,0\H,12,B16,9,A16,6,D16,0\C,15,B17,12,A17,9,D17,0\H,15,B18,12,A
 18,9,D18,0\H,15,B19,12,A19,9,D19,0\C,18,B20,15,A20,12,D20,0\H,18,B21,1
 5,A21,12,D21,0\H,18,B22,15,A22,12,D22,0\C,21,B23,18,A23,15,D23,0\H,21,
 B24,18,A24,15,D24,0\H,21,B25,18,A25,15,D25,0\C,24,B26,21,A26,18,D26,0\
 H,24,B27,21,A27,18,D27,0\H,24,B28,21,A28,18,D28,0\C,27,B29,24,A29,21,D
 29,0\H,27,B30,24,A30,21,D30,0\H,27,B31,24,A31,21,D31,0\C,30,B32,27,A32
 ,24,D32,0\H,33,B33,30,A33,27,D33,0\H,33,B34,30,A34,27,D34,0\H,30,B35,2
 7,A35,24,D35,0\\B1=1.51593555\B2=1.10117794\A2=112.26487701\B3=1.10339
 362\A3=111.18507343\D3=239.58528416\B4=1.10338049\A4=111.19725476\D4=1
 20.44502305\B5=1.51872012\A5=113.11141815\D5=179.87568483\B6=1.1069116
 7\A6=109.99900988\D6=57.63574943\B7=1.10691717\A7=110.00441519\D7=302.
 13275929\B8=1.51747997\A8=113.7659168\D8=179.97643783\B9=1.10863148\A9
 =109.37571413\D9=57.30864547\B10=1.10863413\A10=109.36195196\D10=302.6
 2488199\B11=1.51763401\A11=113.74536395\D11=179.88145189\B12=1.1084609
 6\A12=109.39013764\D12=57.26211511\B13=1.10846599\A13=109.39438673\D13
 =302.51363824\B14=1.51761541\A14=113.72687762\D14=179.9600104\B15=1.10
 842132\A15=109.40208891\D15=57.32842996\B16=1.10841388\A16=109.3928511
 8\D16=302.57546481\B17=1.51766629\A17=113.70352283\D17=179.89152552\B1
 8=1.10839672\A18=109.39638479\D18=57.28067212\B19=1.10841452\A19=109.3
 9954035\D19=302.52083044\B20=1.51772192\A20=113.67957993\D20=179.95199
 892\B21=1.1083684\A21=109.4010286\D21=57.33559421\B22=1.1082607\A22=10
 9.40619676\D22=302.55446582\B23=1.51767754\A23=113.48298797\D23=179.86
 914741\B24=1.1082152\A24=109.42291234\D24=57.3555738\B25=1.10825313\A2
 5=109.43634635\D25=302.48967529\B26=1.52438746\A26=113.17595346\D26=18
 0.43941563\B27=1.10791767\A27=109.54402851\D27=57.91927298\B28=1.10700
 714\A28=109.95887613\D28=302.56724081\B29=1.495417\A29=110.52129977\D2
 9=181.27456342\B30=1.10700017\A30=109.37197086\D30=59.68990731\B31=1.1
 0775308\A31=108.5582618\D31=304.21775144\B32=1.33554191\A32=125.831386
 64\D32=263.63050729\B33=1.09450656\A33=121.92577469\B34=1.09800925\A34
 =121.40324656\B35=1.10302649\A35=113.32175743\D35=60.20032578\D33=150.
 \D34=330.\\Version=ES64L-G09RevD.01\State=1-A\HF=-470.9701865\RMSD=4.5
 22e-09\RMSF=3.284e-03\Dipole=0.1230421,-0.0202758,-0.1927968\Quadrupol
 e=0.451683,2.4592668,-2.9109498,0.123357,1.6889109,0.3631939\PG=C01 [X
 (C12H24)]\\@


 IMAGINATION WILL OFTEN CARRY US TO WORLDS THAT NEVER WERE.
 BUT WITHOUT IT, WE GO NOWHERE. -- CARL SAGAN (COSMOS)
 Job cpu time:       0 days  2 hours 32 minutes 37.4 seconds.
 File lengths (MBytes):  RWF=     40 Int=      0 D2E=      0 Chk=     18 Scr=      1
 Normal termination of Gaussian 09 at Tue Oct 17 17:11:49 2017.
8807.39user 350.01system 20:43.36elapsed 736%CPU (0avgtext+0avgdata 7504692maxresident)k
325488inputs+871376outputs (240major+222789635minor)pagefaults 0swaps
