 Entering Gaussian System, Link 0=g09
 Initial command:
 /soft/gaussian/g09.d01_itasca/g09/l1.exe "/scratch/jgoodpas/2034003.node1081.localdomain/Gau-7821.inp" -scrdir="/scratch/jgoodpas/2034003.node1081.localdomain/"
 Entering Link 1 = /soft/gaussian/g09.d01_itasca/g09/l1.exe PID=      7822.
  
 Copyright (c) 1988,1990,1992,1993,1995,1998,2003,2009,2013,
            Gaussian, Inc.  All Rights Reserved.
  
 This is part of the Gaussian(R) 09 program.  It is based on
 the Gaussian(R) 03 system (copyright 2003, Gaussian, Inc.),
 the Gaussian(R) 98 system (copyright 1998, Gaussian, Inc.),
 the Gaussian(R) 94 system (copyright 1995, Gaussian, Inc.),
 the Gaussian 92(TM) system (copyright 1992, Gaussian, Inc.),
 the Gaussian 90(TM) system (copyright 1990, Gaussian, Inc.),
 the Gaussian 88(TM) system (copyright 1988, Gaussian, Inc.),
 the Gaussian 86(TM) system (copyright 1986, Carnegie Mellon
 University), and the Gaussian 82(TM) system (copyright 1983,
 Carnegie Mellon University). Gaussian is a federally registered
 trademark of Gaussian, Inc.
  
 This software contains proprietary and confidential information,
 including trade secrets, belonging to Gaussian, Inc.
  
 This software is provided under written license and may be
 used, copied, transmitted, or stored only in accord with that
 written license.
  
 The following legend is applicable only to US Government
 contracts under FAR:
  
                    RESTRICTED RIGHTS LEGEND
  
 Use, reproduction and disclosure by the US Government is
 subject to restrictions as set forth in subparagraphs (a)
 and (c) of the Commercial Computer Software - Restricted
 Rights clause in FAR 52.227-19.
  
 Gaussian, Inc.
 340 Quinnipiac St., Bldg. 40, Wallingford CT 06492
  
  
 ---------------------------------------------------------------
 Warning -- This program may not be used in any manner that
 competes with the business of Gaussian, Inc. or will provide
 assistance to any competitor of Gaussian, Inc.  The licensee
 of this program is prohibited from giving any competitor of
 Gaussian, Inc. access to this program.  By using this program,
 the user acknowledges that Gaussian, Inc. is engaged in the
 business of creating and licensing software in the field of
 computational chemistry and represents and warrants to the
 licensee that it is not a competitor of Gaussian, Inc. and that
 it will not use this program in any manner prohibited above.
 ---------------------------------------------------------------
  

 Cite this work as:
 Gaussian 09, Revision D.01,
 M. J. Frisch, G. W. Trucks, H. B. Schlegel, G. E. Scuseria, 
 M. A. Robb, J. R. Cheeseman, G. Scalmani, V. Barone, B. Mennucci, 
 G. A. Petersson, H. Nakatsuji, M. Caricato, X. Li, H. P. Hratchian, 
 A. F. Izmaylov, J. Bloino, G. Zheng, J. L. Sonnenberg, M. Hada, 
 M. Ehara, K. Toyota, R. Fukuda, J. Hasegawa, M. Ishida, T. Nakajima, 
 Y. Honda, O. Kitao, H. Nakai, T. Vreven, J. A. Montgomery, Jr., 
 J. E. Peralta, F. Ogliaro, M. Bearpark, J. J. Heyd, E. Brothers, 
 K. N. Kudin, V. N. Staroverov, T. Keith, R. Kobayashi, J. Normand, 
 K. Raghavachari, A. Rendell, J. C. Burant, S. S. Iyengar, J. Tomasi, 
 M. Cossi, N. Rega, J. M. Millam, M. Klene, J. E. Knox, J. B. Cross, 
 V. Bakken, C. Adamo, J. Jaramillo, R. Gomperts, R. E. Stratmann, 
 O. Yazyev, A. J. Austin, R. Cammi, C. Pomelli, J. W. Ochterski, 
 R. L. Martin, K. Morokuma, V. G. Zakrzewski, G. A. Voth, 
 P. Salvador, J. J. Dannenberg, S. Dapprich, A. D. Daniels, 
 O. Farkas, J. B. Foresman, J. V. Ortiz, J. Cioslowski, 
 and D. J. Fox, Gaussian, Inc., Wallingford CT, 2013.
 
 ******************************************
 Gaussian 09:  ES64L-G09RevD.01 24-Apr-2013
                17-Oct-2017 
 ******************************************
 %LindaWorkers=ic-node0203
 %Mem=11800mb
 %NProcShared=8
 Will use up to    8 processors via shared memory.
 %chk=dimer.chk
 SetLPE:  input flags=" -workerwait 250000 -opt "Tsnet.Node.lindarsharg: ssh " "
 SetLPE:    new flags=" -workerwait 250000 -opt "Tsnet.Node.lindarsharg: ssh "  -nodelist 'ic-node0203'"
 Will use up to    1 processors via Linda.
 -------------------------------------------------------------
 # Opt=(Z-mat,maxcycle=200) m06/def2svp Integral=SuperFineGrid
 -------------------------------------------------------------
 1/6=200,10=7,14=-1,18=40,26=5,38=1/1,3;
 2/12=2,17=6,18=5,29=3,40=1/2;
 3/5=43,7=101,11=2,16=1,25=1,30=1,71=1,74=-54,75=-7/1,2,3;
 4//1;
 5/5=2,38=5/2;
 6/7=2,8=2,9=2,10=2,28=1/1;
 7/29=1/1,2,3,16;
 1/6=200,10=7,14=-1,18=40,26=5/3(2);
 2/29=3/2;
 99//99;
 2/29=3/2;
 3/5=43,7=101,11=2,16=1,25=1,30=1,71=1,74=-54,75=-7/1,2,3;
 4/5=5,16=3,69=1/1;
 5/5=2,38=5/2;
 7//1,2,3,16;
 1/6=200,14=-1,18=40,26=5/3(-5);
 2/29=3/2;
 6/7=2,8=2,9=2,10=2,19=2,28=1/1;
 99/9=1/99;
 ------
 C12H24
 ------
 Symbolic Z-matrix:
 Charge =  0 Multiplicity = 1
 C
 C                    1    B1
 H                    1    B2       2    A2
 H                    1    B3       2    A3       3    D3       0
 H                    1    B4       2    A4       3    D4       0
 C                    2    B5       1    A5       3    D5       0
 H                    2    B6       1    A6       3    D6       0
 H                    2    B7       1    A7       3    D7       0
 C                    6    B8       2    A8       1    D8       0
 H                    6    B9       2    A9       1    D9       0
 H                    6    B10      2    A10      1    D10      0
 C                    9    B11      6    A11      2    D11      0
 H                    9    B12      6    A12      2    D12      0
 H                    9    B13      6    A13      2    D13      0
 C                    12   B14      9    A14      6    D14      0
 H                    12   B15      9    A15      6    D15      0
 H                    12   B16      9    A16      6    D16      0
 C                    15   B17      12   A17      9    D17      0
 H                    15   B18      12   A18      9    D18      0
 H                    15   B19      12   A19      9    D19      0
 C                    18   B20      15   A20      12   D20      0
 H                    18   B21      15   A21      12   D21      0
 H                    18   B22      15   A22      12   D22      0
 C                    21   B23      18   A23      15   D23      0
 H                    21   B24      18   A24      15   D24      0
 H                    21   B25      18   A25      15   D25      0
 C                    24   B26      21   A26      18   D26      0
 H                    24   B27      21   A27      18   D27      0
 H                    24   B28      21   A28      18   D28      0
 C                    27   B29      24   A29      21   D29      0
 H                    27   B30      24   A30      21   D30      0
 H                    27   B31      24   A31      21   D31      0
 C                    30   B32      27   A32      24   D32      0
 H                    33   B33      30   A33      27   D33      0
 H                    33   B34      30   A34      27   D34      0
 H                    30   B35      27   A35      24   D35      0
       Variables:
  B1                    1.52037                  
  B2                    1.09449                  
  A2                  110.2615                   
  B3                    1.09469                  
  A3                  110.99941                  
  D3                  240.2622                   
  B4                    1.09468                  
  A4                  111.00291                  
  D4                  119.74267                  
  B5                    1.52846                  
  A5                  111.49348                  
  D5                  180.02355                  
  B6                    1.09622                  
  A6                  109.14402                  
  D6                   58.466                    
  B7                    1.09622                  
  A7                  109.14651                  
  D7                  301.57536                  
  B8                    1.52957                  
  A8                  111.33085                  
  D8                  180.06732                  
  B9                    1.09685                  
  A9                  109.56808                  
  D9                   58.69294                  
  B10                   1.09685                  
  A10                 109.56982                  
  D10                 301.43153                  
  B11                   1.52959                  
  A11                 111.32932                  
  D11                 180.0495                   
  B12                   1.09682                  
  A12                 109.56214                  
  D12                  58.69169                  
  B13                   1.09682                  
  A13                 109.57144                  
  D13                 301.40424                  
  B14                   1.52958                  
  A14                 111.33412                  
  D14                 180.11548                  
  B15                   1.09681                  
  A15                 109.56324                  
  D15                  58.75236                  
  B16                   1.09681                  
  A16                 109.56894                  
  D16                 301.4668                   
  B17                   1.52958                  
  A17                 111.32441                  
  D17                 180.06818                  
  B18                   1.09681                  
  A18                 109.56207                  
  D18                  58.71257                  
  B19                   1.09681                  
  A19                 109.57415                  
  D19                 301.42268                  
  B20                   1.5296                   
  A20                 111.33392                  
  D20                 180.12584                  
  B21                   1.09681                  
  A21                 109.56096                  
  D21                  58.76319                  
  B22                   1.09681                  
  A22                 109.57002                  
  D22                 301.47796                  
  B23                   1.53006                  
  A23                 111.33208                  
  D23                 180.06793                  
  B24                   1.09681                  
  A24                 109.55355                  
  D24                  58.71484                  
  B25                   1.09681                  
  A25                 109.57481                  
  D25                 301.41764                  
  B26                   1.52997                  
  A26                 111.27387                  
  D26                 180.07455                  
  B27                   1.09745                  
  A27                 109.45602                  
  D27                  58.51678                  
  B28                   1.09744                  
  A28                 109.4982                   
  D28                 301.54273                  
  B29                   1.50175                  
  A29                 111.29171                  
  D29                 180.59371                  
  B30                   1.0969                   
  A30                 109.65896                  
  D30                  57.82495                  
  B31                   1.09657                  
  A31                 109.82846                  
  D31                 300.6713                   
  B32                   1.33889                  
  A32                 124.10415                  
  D32                 241.95558                  
  B33                   1.08555                  
  A33                 121.75919                  
  B34                   1.08571                  
  A34                 120.7488                   
  B35                   1.08828                  
  A35                 116.90896                  
  D35                  62.58421                  
       Constants:
  D33                  89.                       
  D34                 269.                       
 

 GradGradGradGradGradGradGradGradGradGradGradGradGradGradGradGradGradGrad
 Berny optimization.
 Initialization pass.
                       ----------------------------
                       !    Initial Parameters    !
                       ! (Angstroms and Degrees)  !
 ----------------------                            ----------------------
 !      Name          Value   Derivative information (Atomic Units)     !
 ------------------------------------------------------------------------
 !       B1          1.5204   estimate D2E/DX2                          !
 !       B2          1.0945   estimate D2E/DX2                          !
 !       A2        110.2615   estimate D2E/DX2                          !
 !       B3          1.0947   estimate D2E/DX2                          !
 !       A3        110.9994   estimate D2E/DX2                          !
 !       D3        240.2622   estimate D2E/DX2                          !
 !       B4          1.0947   estimate D2E/DX2                          !
 !       A4        111.0029   estimate D2E/DX2                          !
 !       D4        119.7427   estimate D2E/DX2                          !
 !       B5          1.5285   estimate D2E/DX2                          !
 !       A5        111.4935   estimate D2E/DX2                          !
 !       D5        180.0236   estimate D2E/DX2                          !
 !       B6          1.0962   estimate D2E/DX2                          !
 !       A6        109.144    estimate D2E/DX2                          !
 !       D6         58.466    estimate D2E/DX2                          !
 !       B7          1.0962   estimate D2E/DX2                          !
 !       A7        109.1465   estimate D2E/DX2                          !
 !       D7        301.5754   estimate D2E/DX2                          !
 !       B8          1.5296   estimate D2E/DX2                          !
 !       A8        111.3308   estimate D2E/DX2                          !
 !       D8        180.0673   estimate D2E/DX2                          !
 !       B9          1.0969   estimate D2E/DX2                          !
 !       A9        109.5681   estimate D2E/DX2                          !
 !       D9         58.6929   estimate D2E/DX2                          !
 !       B10         1.0969   estimate D2E/DX2                          !
 !       A10       109.5698   estimate D2E/DX2                          !
 !       D10       301.4315   estimate D2E/DX2                          !
 !       B11         1.5296   estimate D2E/DX2                          !
 !       A11       111.3293   estimate D2E/DX2                          !
 !       D11       180.0495   estimate D2E/DX2                          !
 !       B12         1.0968   estimate D2E/DX2                          !
 !       A12       109.5621   estimate D2E/DX2                          !
 !       D12        58.6917   estimate D2E/DX2                          !
 !       B13         1.0968   estimate D2E/DX2                          !
 !       A13       109.5714   estimate D2E/DX2                          !
 !       D13       301.4042   estimate D2E/DX2                          !
 !       B14         1.5296   estimate D2E/DX2                          !
 !       A14       111.3341   estimate D2E/DX2                          !
 !       D14       180.1155   estimate D2E/DX2                          !
 !       B15         1.0968   estimate D2E/DX2                          !
 !       A15       109.5632   estimate D2E/DX2                          !
 !       D15        58.7524   estimate D2E/DX2                          !
 !       B16         1.0968   estimate D2E/DX2                          !
 !       A16       109.5689   estimate D2E/DX2                          !
 !       D16       301.4668   estimate D2E/DX2                          !
 !       B17         1.5296   estimate D2E/DX2                          !
 !       A17       111.3244   estimate D2E/DX2                          !
 !       D17       180.0682   estimate D2E/DX2                          !
 !       B18         1.0968   estimate D2E/DX2                          !
 !       A18       109.5621   estimate D2E/DX2                          !
 !       D18        58.7126   estimate D2E/DX2                          !
 !       B19         1.0968   estimate D2E/DX2                          !
 !       A19       109.5742   estimate D2E/DX2                          !
 !       D19       301.4227   estimate D2E/DX2                          !
 !       B20         1.5296   estimate D2E/DX2                          !
 !       A20       111.3339   estimate D2E/DX2                          !
 !       D20       180.1258   estimate D2E/DX2                          !
 !       B21         1.0968   estimate D2E/DX2                          !
 !       A21       109.561    estimate D2E/DX2                          !
 !       D21        58.7632   estimate D2E/DX2                          !
 !       B22         1.0968   estimate D2E/DX2                          !
 !       A22       109.57     estimate D2E/DX2                          !
 !       D22       301.478    estimate D2E/DX2                          !
 !       B23         1.5301   estimate D2E/DX2                          !
 !       A23       111.3321   estimate D2E/DX2                          !
 !       D23       180.0679   estimate D2E/DX2                          !
 !       B24         1.0968   estimate D2E/DX2                          !
 !       A24       109.5536   estimate D2E/DX2                          !
 !       D24        58.7148   estimate D2E/DX2                          !
 !       B25         1.0968   estimate D2E/DX2                          !
 !       A25       109.5748   estimate D2E/DX2                          !
 !       D25       301.4176   estimate D2E/DX2                          !
 !       B26         1.53     estimate D2E/DX2                          !
 !       A26       111.2739   estimate D2E/DX2                          !
 !       D26       180.0745   estimate D2E/DX2                          !
 !       B27         1.0975   estimate D2E/DX2                          !
 !       A27       109.456    estimate D2E/DX2                          !
 !       D27        58.5168   estimate D2E/DX2                          !
 !       B28         1.0974   estimate D2E/DX2                          !
 !       A28       109.4982   estimate D2E/DX2                          !
 !       D28       301.5427   estimate D2E/DX2                          !
 !       B29         1.5018   estimate D2E/DX2                          !
 !       A29       111.2917   estimate D2E/DX2                          !
 !       D29       180.5937   estimate D2E/DX2                          !
 !       B30         1.0969   estimate D2E/DX2                          !
 !       A30       109.659    estimate D2E/DX2                          !
 !       D30        57.8249   estimate D2E/DX2                          !
 !       B31         1.0966   estimate D2E/DX2                          !
 !       A31       109.8285   estimate D2E/DX2                          !
 !       D31       300.6713   estimate D2E/DX2                          !
 !       B32         1.3389   estimate D2E/DX2                          !
 !       A32       124.1042   estimate D2E/DX2                          !
 !       D32       241.9556   estimate D2E/DX2                          !
 !       B33         1.0856   estimate D2E/DX2                          !
 !       A33       121.7592   estimate D2E/DX2                          !
 !       B34         1.0857   estimate D2E/DX2                          !
 !       A34       120.7488   estimate D2E/DX2                          !
 !       B35         1.0883   estimate D2E/DX2                          !
 !       A35       116.909    estimate D2E/DX2                          !
 !       D35        62.5842   estimate D2E/DX2                          !
 !       D33        89.0      Frozen                                    !
 !       D34       269.0      Frozen                                    !
 ------------------------------------------------------------------------
 Trust Radius=3.00D-01 FncErr=1.00D-07 GrdErr=1.00D-07
 Number of steps in this run=    200 maximum allowed number of steps=    204.
 GradGradGradGradGradGradGradGradGradGradGradGradGradGradGradGradGradGrad

 ---------------------------------------------------------------------------------------------------
                            Z-MATRIX (ANGSTROMS AND DEGREES)
   CD    Cent   Atom    N1       Length/X        N2       Alpha/Y        N3        Beta/Z          J
 ---------------------------------------------------------------------------------------------------
      1      1  C 
      2      2  C        1   1.520370(     1)
      3      3  H        1   1.094490(     2)      2  110.262(    36)
      4      4  H        1   1.094690(     3)      2  110.999(    37)      3  240.262(    70)      0
      5      5  H        1   1.094680(     4)      2  111.003(    38)      3  119.743(    71)      0
      6      6  C        2   1.528460(     5)      1  111.493(    39)      3  180.024(    72)      0
      7      7  H        2   1.096220(     6)      1  109.144(    40)      3   58.466(    73)      0
      8      8  H        2   1.096220(     7)      1  109.147(    41)      3  301.575(    74)      0
      9      9  C        6   1.529570(     8)      2  111.331(    42)      1  180.067(    75)      0
     10     10  H        6   1.096850(     9)      2  109.568(    43)      1   58.693(    76)      0
     11     11  H        6   1.096850(    10)      2  109.570(    44)      1  301.432(    77)      0
     12     12  C        9   1.529590(    11)      6  111.329(    45)      2  180.050(    78)      0
     13     13  H        9   1.096820(    12)      6  109.562(    46)      2   58.692(    79)      0
     14     14  H        9   1.096820(    13)      6  109.571(    47)      2  301.404(    80)      0
     15     15  C       12   1.529580(    14)      9  111.334(    48)      6  180.115(    81)      0
     16     16  H       12   1.096810(    15)      9  109.563(    49)      6   58.752(    82)      0
     17     17  H       12   1.096810(    16)      9  109.569(    50)      6  301.467(    83)      0
     18     18  C       15   1.529580(    17)     12  111.324(    51)      9  180.068(    84)      0
     19     19  H       15   1.096810(    18)     12  109.562(    52)      9   58.713(    85)      0
     20     20  H       15   1.096810(    19)     12  109.574(    53)      9  301.423(    86)      0
     21     21  C       18   1.529600(    20)     15  111.334(    54)     12  180.126(    87)      0
     22     22  H       18   1.096810(    21)     15  109.561(    55)     12   58.763(    88)      0
     23     23  H       18   1.096810(    22)     15  109.570(    56)     12  301.478(    89)      0
     24     24  C       21   1.530060(    23)     18  111.332(    57)     15  180.068(    90)      0
     25     25  H       21   1.096810(    24)     18  109.554(    58)     15   58.715(    91)      0
     26     26  H       21   1.096810(    25)     18  109.575(    59)     15  301.418(    92)      0
     27     27  C       24   1.529970(    26)     21  111.274(    60)     18  180.075(    93)      0
     28     28  H       24   1.097450(    27)     21  109.456(    61)     18   58.517(    94)      0
     29     29  H       24   1.097440(    28)     21  109.498(    62)     18  301.543(    95)      0
     30     30  C       27   1.501750(    29)     24  111.292(    63)     21  180.594(    96)      0
     31     31  H       27   1.096900(    30)     24  109.659(    64)     21   57.825(    97)      0
     32     32  H       27   1.096570(    31)     24  109.828(    65)     21  300.671(    98)      0
     33     33  C       30   1.338890(    32)     27  124.104(    66)     24  241.956(    99)      0
     34     34  H       33   1.085550(    33)     30  121.759(    67)     27   89.000(   100)      0
     35     35  H       33   1.085710(    34)     30  120.749(    68)     27  269.000(   101)      0
     36     36  H       30   1.088280(    35)     27  116.909(    69)     24   62.584(   102)      0
 ---------------------------------------------------------------------------------------------------
                         Z-Matrix orientation:                         
 ---------------------------------------------------------------------
 Center     Atomic      Atomic             Coordinates (Angstroms)
 Number     Number       Type             X           Y           Z
 ---------------------------------------------------------------------
      1          6           0        0.000000    0.000000    0.000000
      2          6           0        0.000000    0.000000    1.520370
      3          1           0        1.026765    0.000000   -0.379028
      4          1           0       -0.506937    0.887394   -0.392291
      5          1           0       -0.506996   -0.887322   -0.392350
      6          6           0       -1.422170   -0.000585    2.080391
      7          1           0        0.541621    0.882669    1.879869
      8          1           0        0.542250   -0.882265    1.879914
      9          6           0       -1.417829    0.001091    3.609954
     10          1           0       -1.960390   -0.883823    1.715305
     11          1           0       -1.961845    0.881033    1.713538
     12          6           0       -2.841064   -0.000725    4.170352
     13          1           0       -0.880476    0.884957    3.974709
     14          1           0       -0.877544   -0.880117    3.976802
     15          6           0       -2.836857    0.003823    5.699919
     16          1           0       -3.377699   -0.885606    3.807035
     17          1           0       -3.382035    0.879433    3.802024
     18          6           0       -4.260172    0.000310    6.260077
     19          1           0       -2.301279    0.889417    6.063059
     20          1           0       -2.294922   -0.875633    6.068507
     21          6           0       -4.256232    0.007986    7.789653
     22          1           0       -4.794941   -0.886396    5.898461
     23          1           0       -4.802856    0.878620    5.889863
     24          6           0       -5.680003    0.002782    8.349950
     25          1           0       -3.722490    0.895453    8.150919
     26          1           0       -3.712685   -0.869677    8.160135
     27          6           0       -5.674519    0.012323    9.879880
     28          1           0       -6.213070   -0.884521    7.985355
     29          1           0       -6.223979    0.879534    7.976089
     30          6           0       -7.071612   -0.007278   10.430335
     31          1           0       -5.128482    0.892261   10.241464
     32          1           0       -5.141577   -0.869376   10.255440
     33          6           0       -7.595135    0.967368   11.184400
     34          1           0       -8.110301    1.815729   10.744732
     35          1           0       -7.517254    0.934309   12.266808
     36          1           0       -7.679357   -0.880293   10.200458
 ---------------------------------------------------------------------
                    Distance matrix (angstroms):
                    1          2          3          4          5
     1  C    0.000000
     2  C    1.520370   0.000000
     3  H    1.094490   2.159157   0.000000
     4  H    1.094690   2.168577   1.771972   0.000000
     5  H    1.094680   2.168613   1.771988   1.774717   0.000000
     6  C    2.520038   1.528460   3.470738   2.782142   2.781779
     7  H    2.146244   1.096220   2.473274   2.502440   3.065199
     8  H    2.146276   1.096220   2.473047   3.065192   2.502823
     9  C    3.878402   2.525193   4.678463   4.199193   4.199682
    10  H    2.750735   2.159230   3.753727   3.113149   2.560191
    11  H    2.749776   2.159252   3.753244   2.559554   3.111018
    12  C    5.046135   3.885106   5.971344   5.201405   5.201170
    13  H    4.166137   2.753574   4.834847   4.382948   4.727755
    14  H    4.166491   2.752953   4.834693   4.727624   4.384843
    15  C    6.366856   5.051376   7.202859   6.582116   6.583171
    16  H    5.165913   4.173965   6.140580   5.386942   5.086823
    17  H    5.164005   4.173428   6.139390   5.085128   5.383311
    18  C    7.572162   6.372903   8.487015   7.689454   7.689539
    19  H    6.545810   5.169427   7.305301   6.700091   6.931707
    20  H    6.546768   5.169037   7.305548   6.931599   6.703692
    21  C    8.876613   7.577564   9.728179   9.042941   9.044530
    22  H    7.653038   6.553231   8.607254   7.817088   7.613197
    23  H    7.650482   6.552241   8.605547   7.610549   7.812756
    24  C   10.098718   8.882882  11.007988  10.196564  10.197063
    25  H    9.005346   7.656563   9.803941   9.128324   9.300814
    26  H    9.007118   7.656817   9.804898   9.300974   9.133551
    27  C   11.393522  10.103550  12.253675  11.532006  11.533922
    28  H   10.156304   9.010030  11.097769  10.290024  10.136332
    29  H   10.155269   9.010427  11.097515  10.134812  10.287684
    30  C   12.601572  11.375202  13.506520  12.689548  12.688545
    31  H   11.488475  10.156522  12.307642  11.594631  11.730433
    32  H   11.505028  10.173154  12.324616  11.744799  11.612713
    33  C   13.554065  12.329451  14.456342  13.574562  13.700465
    34  H   13.583929  12.416228  14.509338  13.516887  13.753230
    35  H   14.417234  13.147927  15.290205  14.470644  14.584799
    36  H   12.798312  11.622882  13.729421  12.914127  12.792592
                    6          7          8          9         10
     6  C    0.000000
     7  H    2.162596   0.000000
     8  H    2.162521   1.764935   0.000000
     9  C    1.529570   2.758590   2.759577   0.000000
    10  H    1.096850   3.067188   2.508049   2.160357   0.000000
    11  H    1.096850   2.508986   3.067147   2.160241   1.764858
    12  C    2.526103   4.179624   4.179717   1.529590   2.753671
    13  H    2.160106   2.531941   3.087943   1.096820   3.065894
    14  H    2.160225   3.085219   2.532343   1.096820   2.507378
    15  C    3.886174   5.174869   5.176481   2.526184   4.175316
    16  H    2.754752   4.711883   4.368044   2.160130   2.526678
    17  H    2.753093   4.369184   4.711486   2.160203   3.079698
    18  C    5.052132   6.559116   6.559576   3.886138   5.169685
    19  H    4.174516   5.057787   5.359405   2.754511   4.707818
    20  H    4.175222   5.355585   5.059042   2.753620   4.366045
    21  C    6.373983   7.662246   7.664398   5.052372   6.554687
    22  H    5.170871   6.910685   6.680894   4.174899   5.053066
    23  H    5.168570   6.681580   6.910178   4.174500   5.349089
    24  C    7.578689   9.019133   9.020039   6.374456   7.657682
    25  H    6.553295   7.583462   7.789339   5.170272   6.905647
    26  H    6.554775   7.785345   7.585896   5.169986   6.678816
    27  C    8.883393  10.168485  10.170937   7.578358   9.014328
    28  H    7.655238   9.275008   9.105535   6.551548   7.576200
    29  H    7.654491   9.106989   9.276268   6.552394   7.777212
    30  C   10.081558  11.483196  11.482430   8.859059  10.141236
    31  H    9.007611  10.102794  10.257762   7.651148   9.267507
    32  H    9.023315  10.272224  10.122030   7.667235   9.113400
    33  C   11.041984  12.360756  12.498466   9.821662  11.173228
    34  H   11.095085  12.422245  12.677966   9.949229  11.253424
    35  H   11.907442  13.146735  13.271892  10.630852  12.063108
    36  H   10.288916  11.828979  11.697277   9.133363  10.232518
                   11         12         13         14         15
    11  H    0.000000
    12  C    2.754352   0.000000
    13  H    2.506446   2.160234   0.000000
    14  H    3.065897   2.160139   1.765078   0.000000
    15  C    4.174491   1.529580   2.753212   2.754885   0.000000
    16  H    3.083567   1.096810   3.065801   2.505919   2.160233
    17  H    2.525611   1.096810   2.507518   3.065785   2.160074
    18  C    5.170010   2.526029   4.174668   4.175006   1.529580
    19  H    4.362754   2.160107   2.525848   3.083949   1.096810
    20  H    4.707714   2.160261   3.079663   2.526699   1.096810
    21  C    6.553289   3.886145   5.169004   5.171276   2.526189
    22  H    5.353860   2.754707   4.707605   4.363349   2.160092
    23  H    5.051043   2.752925   4.364965   4.707550   2.160208
    24  C    7.657544   5.052586   6.554115   6.554963   3.886662
    25  H    6.673826   4.174322   5.051523   5.354402   2.754406
    26  H    6.905725   4.175306   5.349574   5.053554   2.753678
    27  C    9.012644   6.373959   7.656068   7.658573   5.052175
    28  H    7.779832   5.167763   6.903107   6.673556   4.172671
    29  H    7.575310   5.167456   6.675634   6.904711   4.173777
    30  C   10.143045   7.555459   8.988957   8.987569   6.349024
    31  H    9.096881   6.548902   7.570854   7.775461   5.163962
    32  H    9.281094   6.563171   7.789881   7.589689   5.179477
    33  C   11.019920   8.528498   9.852567  10.024405   7.324559
    34  H   10.965383   8.618982   9.948362  10.265731   7.519465
    35  H   11.926312   9.396470  10.621119  10.775068   8.117632
    36  H   10.383642   7.781061   9.386205   9.219466   6.669807
                   16         17         18         19         20
    16  H    0.000000
    17  H    1.765051   0.000000
    18  C    2.753366   2.754271   0.000000
    19  H    3.065784   2.506075   2.160229   0.000000
    20  H    2.507341   3.065781   2.160135   1.765070   0.000000
    21  C    4.175114   4.174306   1.529600   2.753160   2.754971
    22  H    2.526388   3.083748   1.096810   3.065771   2.505818
    23  H    3.079243   2.525432   1.096810   2.507588   3.065787
    24  C    5.169905   5.170378   2.526558   4.175137   4.175568
    25  H    4.707482   4.362231   2.160015   2.525676   3.084013
    26  H    4.366000   4.707638   2.160287   3.079644   2.526855
    27  C    6.554472   6.553449   3.886321   5.168768   5.170755
    28  H    5.049524   5.350379   2.751966   4.705761   4.361911
    29  H    5.347714   5.049700   2.752139   4.364327   4.707119
    30  C    7.634432   7.637653   5.029443   6.529413   6.526588
    31  H    6.901300   6.672079   4.171449   5.045013   5.344912
    32  H    6.685317   6.913819   4.182840   5.360662   5.062992
    33  C    8.697460   8.500437   6.025457   7.366079   7.593502
    34  H    8.821926   8.451885   6.183152   7.518035   7.932789
    35  H    9.592485   9.421021   6.896503   8.105240   8.304672
    36  H    7.705852   7.905921   5.290831   7.012394   6.787134
                   21         22         23         24         25
    21  C    0.000000
    22  H    2.160262   0.000000
    23  H    2.160093   1.765055   0.000000
    24  C    1.530060   2.753865   2.754724   0.000000
    25  H    1.096810   3.065731   2.505963   2.160632   0.000000
    26  H    1.096810   2.507335   3.065803   2.160452   1.765182
    27  C    2.525986   4.175291   4.174985   1.529970   2.753114
    28  H    2.159649   2.523137   3.080334   1.097450   3.065731
    29  H    2.160181   3.078506   2.524268   1.097440   2.507641
    30  C    3.860025   5.147228   5.152471   2.502934   4.150575
    31  H    2.748480   4.704950   4.363789   2.161753   2.519365
    32  H    2.762916   4.370779   4.714709   2.163667   3.091510
    33  C    4.857262   6.262482   5.986387   3.554190   4.919812
    34  H    5.182111   6.463702   5.948708   3.863691   5.179542
    35  H    5.615804   7.161132   6.930836   4.425496   5.598418
    36  H    4.280048   5.179486   5.472593   2.863847   4.796945
                   26         27         28         29         30
    26  H    0.000000
    27  C    2.753949   0.000000
    28  H    2.506530   2.164161   0.000000
    29  H    3.065976   2.162957   1.764112   0.000000
    30  C    4.144867   1.501750   2.735795   2.743764   0.000000
    31  H    3.072595   1.096900   3.069742   2.516387   2.149557
    32  H    2.536145   1.096570   2.510302   3.070134   2.121046
    33  C    5.253030   2.510508   3.946326   3.490136   1.338890
    34  H    5.764596   3.151710   4.301743   3.478514   2.121573
    35  H    5.881655   3.153277   4.831137   4.481722   2.111355
    36  H    4.460663   2.217862   2.656445   3.187936   1.088280
                   31         32         33         34         35
    31  H    0.000000
    32  H    1.761741   0.000000
    33  C    2.641807   3.202584   0.000000
    34  H    3.161853   4.032681   1.085550   0.000000
    35  H    3.132094   3.597599   1.085710   1.856157   0.000000
    36  H    3.106541   2.538400   2.095015   2.783968   2.754789
                   36
    36  H    0.000000
 Stoichiometry    C12H24
 Framework group  C1[X(C12H24)]
 Deg. of freedom   102
 Full point group                 C1      NOp   1
 Largest Abelian subgroup         C1      NOp   1
 Largest concise Abelian subgroup C1      NOp   1
                         Standard orientation:                         
 ---------------------------------------------------------------------
 Center     Atomic      Atomic             Coordinates (Angstroms)
 Number     Number       Type             X           Y           Z
 ---------------------------------------------------------------------
      1          6           0       -6.772978   -0.426112    0.058339
      2          6           0       -5.523177    0.435089    0.146970
      3          1           0       -7.668432    0.192174    0.175785
      4          1           0       -6.780837   -1.188140    0.844213
      5          1           0       -6.833540   -0.931119   -0.911003
      6          6           0       -4.254107   -0.401370   -0.014240
      7          1           0       -5.509448    0.950253    1.114501
      8          1           0       -5.562167    1.206473   -0.630940
      9          6           0       -2.999167    0.468316    0.077175
     10          1           0       -4.274379   -0.916857   -0.982197
     11          1           0       -4.222609   -1.174711    0.762954
     12          6           0       -1.729218   -0.368614   -0.085376
     13          1           0       -2.978654    0.982822    1.045615
     14          1           0       -3.031003    1.242091   -0.699532
     15          6           0       -0.474113    0.500550    0.008860
     16          1           0       -1.748986   -0.881576   -1.054640
     17          1           0       -1.698239   -1.143631    0.690112
     18          6           0        0.795634   -0.336336   -0.155393
     19          1           0       -0.453868    1.012450    0.978675
     20          1           0       -0.505406    1.276394   -0.765787
     21          6           0        2.050990    0.532163   -0.058099
     22          1           0        0.776148   -0.846555   -1.126109
     23          1           0        0.825981   -1.113543    0.617924
     24          6           0        3.321061   -0.304769   -0.224079
     25          1           0        2.070795    1.041241    0.913209
     26          1           0        2.020392    1.310128   -0.830644
     27          6           0        4.575885    0.564914   -0.124709
     28          1           0        3.298141   -0.815209   -1.195327
     29          1           0        3.349099   -1.084864    0.547310
     30          6           0        5.822267   -0.253864   -0.301876
     31          1           0        4.588737    1.085237    0.840842
     32          1           0        4.555372    1.337737   -0.902391
     33          6           0        6.768779   -0.392645    0.634864
     34          1           0        6.725495   -1.182529    1.378253
     35          1           0        7.613290    0.288448    0.675852
     36          1           0        5.952982   -0.750648   -1.261289
 ---------------------------------------------------------------------
 Rotational constants (GHZ):      6.3617092      0.1581868      0.1569870
 Standard basis: def2SVP (5D, 7F)
 There are   300 symmetry adapted cartesian basis functions of A   symmetry.
 There are   288 symmetry adapted basis functions of A   symmetry.
   288 basis functions,   468 primitive gaussians,   300 cartesian basis functions
    48 alpha electrons       48 beta electrons
       nuclear repulsion energy       654.6624163105 Hartrees.
 NAtoms=   36 NActive=   36 NUniq=   36 SFac= 1.00D+00 NAtFMM=   60 NAOKFM=F Big=F
 Integral buffers will be    131072 words long.
 Raffenetti 2 integral format.
 Two-electron integral symmetry is turned on.
 One-electron integrals computed using PRISM.
   1 Symmetry operations used in ECPInt.
 ECPInt:  NShTT=   10440 NPrTT=   35208 LenC2=    8759 LenP2D=   21884.
 LDataN:  DoStor=T MaxTD1= 4 Len=   56
 NBasis=   288 RedAO= T EigKep=  7.65D-04  NBF=   288
 NBsUse=   288 1.00D-06 EigRej= -1.00D+00 NBFU=   288
 ExpMin= 1.22D-01 ExpMax= 1.24D+03 ExpMxC= 1.86D+02 IAcc=3 IRadAn=         7 AccDes= 0.00D+00
 Harris functional with IExCor= 1009 and IRadAn=       7 diagonalized for initial guess.
 HarFok:  IExCor= 1009 AccDes= 0.00D+00 IRadAn=         7 IDoV= 1 UseB2=F ITyADJ=14
 ICtDFT=  3500011 ScaDFX=  1.000000  1.000000  1.000000  1.000000
 FoFCou: FMM=F IPFlag=           0 FMFlag=      100000 FMFlg1=           0
         NFxFlg=           0 DoJE=T BraDBF=F KetDBF=T FulRan=T
         wScrn=  0.000000 ICntrl=     500 IOpCl=  0 I1Cent=   200000004 NGrid=           0
         NMat0=    1 NMatS0=      1 NMatT0=    0 NMatD0=    1 NMtDS0=    0 NMtDT0=    0
 Petite list used in FoFCou.
 Keep R1 ints in memory in canonical form, NReq=879895090.
 Requested convergence on RMS density matrix=1.00D-08 within 128 cycles.
 Requested convergence on MAX density matrix=1.00D-06.
 Requested convergence on             energy=1.00D-06.
 No special actions if energy rises.
 Integral accuracy reduced to 1.0D-05 until final iterations.
 Initial convergence to 1.0D-05 achieved.  Increase integral accuracy.
 SCF Done:  E(RM06) =  -470.824726754     A.U. after   18 cycles
            NFock= 18  Conv=0.24D-08     -V/T= 2.0121

 **********************************************************************

            Population analysis using the SCF density.

 **********************************************************************

 Orbital symmetries:
       Occupied  (A) (A) (A) (A) (A) (A) (A) (A) (A) (A) (A) (A)
                 (A) (A) (A) (A) (A) (A) (A) (A) (A) (A) (A) (A)
                 (A) (A) (A) (A) (A) (A) (A) (A) (A) (A) (A) (A)
                 (A) (A) (A) (A) (A) (A) (A) (A) (A) (A) (A) (A)
       Virtual   (A) (A) (A) (A) (A) (A) (A) (A) (A) (A) (A) (A)
                 (A) (A) (A) (A) (A) (A) (A) (A) (A) (A) (A) (A)
                 (A) (A) (A) (A) (A) (A) (A) (A) (A) (A) (A) (A)
                 (A) (A) (A) (A) (A) (A) (A) (A) (A) (A) (A) (A)
                 (A) (A) (A) (A) (A) (A) (A) (A) (A) (A) (A) (A)
                 (A) (A) (A) (A) (A) (A) (A) (A) (A) (A) (A) (A)
                 (A) (A) (A) (A) (A) (A) (A) (A) (A) (A) (A) (A)
                 (A) (A) (A) (A) (A) (A) (A) (A) (A) (A) (A) (A)
                 (A) (A) (A) (A) (A) (A) (A) (A) (A) (A) (A) (A)
                 (A) (A) (A) (A) (A) (A) (A) (A) (A) (A) (A) (A)
                 (A) (A) (A) (A) (A) (A) (A) (A) (A) (A) (A) (A)
                 (A) (A) (A) (A) (A) (A) (A) (A) (A) (A) (A) (A)
                 (A) (A) (A) (A) (A) (A) (A) (A) (A) (A) (A) (A)
                 (A) (A) (A) (A) (A) (A) (A) (A) (A) (A) (A) (A)
                 (A) (A) (A) (A) (A) (A) (A) (A) (A) (A) (A) (A)
                 (A) (A) (A) (A) (A) (A) (A) (A) (A) (A) (A) (A)
                 (A) (A) (A) (A) (A) (A) (A) (A) (A) (A) (A) (A)
                 (A) (A) (A) (A) (A) (A) (A) (A) (A) (A) (A) (A)
                 (A) (A) (A) (A) (A) (A) (A) (A) (A) (A) (A) (A)
                 (A) (A) (A) (A) (A) (A) (A) (A) (A) (A) (A) (A)
 The electronic state is 1-A.
 Alpha  occ. eigenvalues --  -10.26025 -10.25035 -10.24277 -10.23970 -10.23849
 Alpha  occ. eigenvalues --  -10.23770 -10.23769 -10.23716 -10.23681 -10.23668
 Alpha  occ. eigenvalues --  -10.23226 -10.22297  -0.82392  -0.81224  -0.79221
 Alpha  occ. eigenvalues --   -0.76496  -0.73205  -0.69374  -0.65054  -0.60763
 Alpha  occ. eigenvalues --   -0.58543  -0.57789  -0.57545  -0.55280  -0.49822
 Alpha  occ. eigenvalues --   -0.48600  -0.46706  -0.44860  -0.44595  -0.44023
 Alpha  occ. eigenvalues --   -0.43532  -0.42357  -0.41850  -0.40352  -0.39817
 Alpha  occ. eigenvalues --   -0.39010  -0.37486  -0.36468  -0.35438  -0.35047
 Alpha  occ. eigenvalues --   -0.34497  -0.34159  -0.33642  -0.33536  -0.33121
 Alpha  occ. eigenvalues --   -0.32963  -0.30504  -0.16333
 Alpha virt. eigenvalues --   -0.08202   0.06236   0.06957   0.07896   0.08132
 Alpha virt. eigenvalues --    0.08676   0.09285   0.09783   0.10098   0.11310
 Alpha virt. eigenvalues --    0.11529   0.12549   0.13181   0.14302   0.14652
 Alpha virt. eigenvalues --    0.15236   0.15726   0.16144   0.16202   0.16802
 Alpha virt. eigenvalues --    0.17173   0.18043   0.18436   0.19427   0.19679
 Alpha virt. eigenvalues --    0.20316   0.20644   0.22594   0.22988   0.23429
 Alpha virt. eigenvalues --    0.25705   0.26468   0.28079   0.31970   0.33119
 Alpha virt. eigenvalues --    0.34774   0.38466   0.40559   0.41442   0.42320
 Alpha virt. eigenvalues --    0.42563   0.43195   0.43751   0.43913   0.44879
 Alpha virt. eigenvalues --    0.47043   0.48501   0.49632   0.50525   0.50725
 Alpha virt. eigenvalues --    0.52216   0.53041   0.54315   0.54689   0.56848
 Alpha virt. eigenvalues --    0.58217   0.60102   0.61070   0.61839   0.62005
 Alpha virt. eigenvalues --    0.62086   0.62336   0.62624   0.62962   0.63201
 Alpha virt. eigenvalues --    0.63343   0.64193   0.64599   0.64863   0.65609
 Alpha virt. eigenvalues --    0.66006   0.66178   0.66278   0.66570   0.66963
 Alpha virt. eigenvalues --    0.67128   0.67259   0.68070   0.68777   0.68846
 Alpha virt. eigenvalues --    0.69170   0.69813   0.70254   0.70840   0.71322
 Alpha virt. eigenvalues --    0.71555   0.71713   0.72003   0.72580   0.72993
 Alpha virt. eigenvalues --    0.74273   0.78461   0.82157   0.86606   0.88073
 Alpha virt. eigenvalues --    0.91320   0.94495   0.98301   0.98822   1.00519
 Alpha virt. eigenvalues --    1.01186   1.01847   1.02356   1.02944   1.04015
 Alpha virt. eigenvalues --    1.05469   1.07411   1.09318   1.17425   1.19628
 Alpha virt. eigenvalues --    1.22006   1.23502   1.26837   1.31438   1.31628
 Alpha virt. eigenvalues --    1.32788   1.33487   1.34606   1.35798   1.36043
 Alpha virt. eigenvalues --    1.37241   1.37733   1.37951   1.41647   1.46775
 Alpha virt. eigenvalues --    1.52393   1.52627   1.56362   1.58366   1.60877
 Alpha virt. eigenvalues --    1.65430   1.65990   1.66386   1.66484   1.69223
 Alpha virt. eigenvalues --    1.71344   1.72093   1.73230   1.73940   1.74020
 Alpha virt. eigenvalues --    1.74652   1.74996   1.75900   1.76494   1.77549
 Alpha virt. eigenvalues --    1.78046   1.78886   1.79308   1.79856   1.80191
 Alpha virt. eigenvalues --    1.80372   1.80981   1.81086   1.82112   1.82522
 Alpha virt. eigenvalues --    1.83004   1.84069   1.84500   1.85630   1.86058
 Alpha virt. eigenvalues --    1.87325   1.88905   1.89778   1.90632   1.91348
 Alpha virt. eigenvalues --    1.91729   1.92347   1.92820   1.93409   1.94301
 Alpha virt. eigenvalues --    1.96350   1.98469   1.99507   2.00602   2.04092
 Alpha virt. eigenvalues --    2.05912   2.06529   2.09651   2.10278   2.10658
 Alpha virt. eigenvalues --    2.14253   2.15183   2.18936   2.20845   2.23649
 Alpha virt. eigenvalues --    2.27762   2.29196   2.31289   2.35862   2.37219
 Alpha virt. eigenvalues --    2.37282   2.39916   2.40776   2.41459   2.41714
 Alpha virt. eigenvalues --    2.42297   2.43260   2.44574   2.45990   2.46757
 Alpha virt. eigenvalues --    2.49277   2.50822   2.51339   2.52094   2.55632
 Alpha virt. eigenvalues --    2.56582   2.57225   2.57467   2.59065   2.59721
 Alpha virt. eigenvalues --    2.60457   2.61573   2.63123   2.65251   2.69541
 Alpha virt. eigenvalues --    2.74744   2.75711   2.78778   2.82176   2.83032
 Alpha virt. eigenvalues --    2.83787   2.84856   2.86059   2.88025   2.89410
 Alpha virt. eigenvalues --    2.91782   2.92159   2.92648   2.95156   2.96307
 Alpha virt. eigenvalues --    2.97266   2.98297   2.99515   2.99878   3.01462
 Alpha virt. eigenvalues --    3.01896   3.03706   3.04699   3.05742   3.07463
          Condensed to atoms (all electrons):
               1          2          3          4          5          6
     1  C    4.571295   0.421808   0.377989   0.394090   0.394039  -0.058839
     2  C    0.421808   4.673971  -0.014017  -0.023348  -0.023346   0.398588
     3  H    0.377989  -0.014017   0.656359  -0.024826  -0.024833   0.008285
     4  H    0.394090  -0.023348  -0.024826   0.653132  -0.027910  -0.008671
     5  H    0.394039  -0.023346  -0.024833  -0.027910   0.653277  -0.008672
     6  C   -0.058839   0.398588   0.008285  -0.008671  -0.008672   4.752092
     7  H   -0.023826   0.375271  -0.006692  -0.010176   0.008803  -0.022829
     8  H   -0.023800   0.375183  -0.006705   0.008802  -0.010166  -0.022773
     9  C    0.009390  -0.046174  -0.000555   0.000467   0.000470   0.364224
    10  H   -0.004392  -0.027294  -0.000047  -0.001941   0.007553   0.374676
    11  H   -0.004374  -0.027347  -0.000045   0.007554  -0.001947   0.374826
    12  C   -0.000510   0.008366   0.000016  -0.000008  -0.000008  -0.043077
    13  H    0.000293  -0.006634   0.000008  -0.000053   0.000024  -0.022324
    14  H    0.000298  -0.006624   0.000008   0.000024  -0.000053  -0.022312
    15  C    0.000009  -0.000440   0.000000   0.000000   0.000000   0.008158
    16  H    0.000007   0.000318   0.000000   0.000004  -0.000010  -0.007036
    17  H    0.000007   0.000325   0.000000  -0.000010   0.000004  -0.007016
    18  C    0.000000   0.000008   0.000000   0.000000   0.000000  -0.000458
    19  H    0.000000   0.000003   0.000000   0.000000   0.000000   0.000376
    20  H    0.000000   0.000003   0.000000   0.000000   0.000000   0.000385
    21  C    0.000000   0.000000   0.000000   0.000000   0.000000   0.000008
    22  H    0.000000   0.000000   0.000000   0.000000   0.000000   0.000003
    23  H    0.000000   0.000000   0.000000   0.000000   0.000000   0.000004
    24  C    0.000000   0.000000   0.000000   0.000000   0.000000   0.000000
    25  H    0.000000   0.000000   0.000000   0.000000   0.000000   0.000000
    26  H    0.000000   0.000000   0.000000   0.000000   0.000000   0.000000
    27  C    0.000000   0.000000   0.000000   0.000000   0.000000   0.000000
    28  H    0.000000   0.000000   0.000000   0.000000   0.000000   0.000000
    29  H    0.000000   0.000000   0.000000   0.000000   0.000000   0.000000
    30  C    0.000000   0.000000   0.000000   0.000000   0.000000   0.000000
    31  H    0.000000   0.000000   0.000000   0.000000   0.000000   0.000000
    32  H    0.000000   0.000000   0.000000   0.000000   0.000000   0.000000
    33  C    0.000000   0.000000   0.000000   0.000000   0.000000   0.000000
    34  H    0.000000   0.000000   0.000000   0.000000   0.000000   0.000000
    35  H    0.000000   0.000000   0.000000   0.000000   0.000000   0.000000
    36  H    0.000000   0.000000   0.000000   0.000000   0.000000   0.000000
               7          8          9         10         11         12
     1  C   -0.023826  -0.023800   0.009390  -0.004392  -0.004374  -0.000510
     2  C    0.375271   0.375183  -0.046174  -0.027294  -0.027347   0.008366
     3  H   -0.006692  -0.006705  -0.000555  -0.000047  -0.000045   0.000016
     4  H   -0.010176   0.008802   0.000467  -0.001941   0.007554  -0.000008
     5  H    0.008803  -0.010166   0.000470   0.007553  -0.001947  -0.000008
     6  C   -0.022829  -0.022773   0.364224   0.374676   0.374826  -0.043077
     7  H    0.690936  -0.034877  -0.007353   0.009504  -0.011836   0.000362
     8  H   -0.034877   0.691092  -0.007372  -0.011878   0.009502   0.000358
     9  C   -0.007353  -0.007372   4.750011  -0.020967  -0.020979   0.363928
    10  H    0.009504  -0.011878  -0.020967   0.696346  -0.037160  -0.007320
    11  H   -0.011836   0.009502  -0.020979  -0.037160   0.696084  -0.007337
    12  C    0.000362   0.000358   0.363928  -0.007320  -0.007337   4.748217
    13  H    0.007901  -0.002030   0.372314   0.009441  -0.011951  -0.021277
    14  H   -0.002039   0.007902   0.372159  -0.011929   0.009443  -0.021207
    15  C    0.000004   0.000004  -0.044092   0.000436   0.000430   0.365786
    16  H    0.000015  -0.000040  -0.021637   0.007736  -0.002009   0.371772
    17  H   -0.000040   0.000015  -0.021680  -0.002020   0.007742   0.371968
    18  C    0.000000   0.000000   0.008354   0.000001   0.000001  -0.044828
    19  H   -0.000013   0.000005  -0.007113   0.000014  -0.000040  -0.021209
    20  H    0.000005  -0.000012  -0.007108  -0.000040   0.000014  -0.021214
    21  C    0.000000   0.000000  -0.000461   0.000000   0.000000   0.008349
    22  H    0.000000   0.000000   0.000391  -0.000012   0.000005  -0.007202
    23  H    0.000000   0.000000   0.000388   0.000005  -0.000012  -0.007047
    24  C    0.000000   0.000000   0.000008   0.000000   0.000000  -0.000442
    25  H    0.000000   0.000000   0.000004   0.000000   0.000000   0.000364
    26  H    0.000000   0.000000   0.000002   0.000000   0.000000   0.000402
    27  C    0.000000   0.000000   0.000000   0.000000   0.000000   0.000007
    28  H    0.000000   0.000000   0.000000   0.000000   0.000000   0.000003
    29  H    0.000000   0.000000   0.000000   0.000000   0.000000   0.000004
    30  C    0.000000   0.000000   0.000000   0.000000   0.000000   0.000000
    31  H    0.000000   0.000000   0.000000   0.000000   0.000000   0.000001
    32  H    0.000000   0.000000   0.000000   0.000000   0.000000   0.000000
    33  C    0.000000   0.000000   0.000000   0.000000   0.000000   0.000000
    34  H    0.000000   0.000000   0.000000   0.000000   0.000000   0.000000
    35  H    0.000000   0.000000   0.000000   0.000000   0.000000   0.000000
    36  H    0.000000   0.000000   0.000000   0.000000   0.000000   0.000000
              13         14         15         16         17         18
     1  C    0.000293   0.000298   0.000009   0.000007   0.000007   0.000000
     2  C   -0.006634  -0.006624  -0.000440   0.000318   0.000325   0.000008
     3  H    0.000008   0.000008   0.000000   0.000000   0.000000   0.000000
     4  H   -0.000053   0.000024   0.000000   0.000004  -0.000010   0.000000
     5  H    0.000024  -0.000053   0.000000  -0.000010   0.000004   0.000000
     6  C   -0.022324  -0.022312   0.008158  -0.007036  -0.007016  -0.000458
     7  H    0.007901  -0.002039   0.000004   0.000015  -0.000040   0.000000
     8  H   -0.002030   0.007902   0.000004  -0.000040   0.000015   0.000000
     9  C    0.372314   0.372159  -0.044092  -0.021637  -0.021680   0.008354
    10  H    0.009441  -0.011929   0.000436   0.007736  -0.002020   0.000001
    11  H   -0.011951   0.009443   0.000430  -0.002009   0.007742   0.000001
    12  C   -0.021277  -0.021207   0.365786   0.371772   0.371968  -0.044828
    13  H    0.695867  -0.036324  -0.007216   0.009379  -0.011858   0.000401
    14  H   -0.036324   0.696219  -0.007251  -0.011929   0.009376   0.000392
    15  C   -0.007216  -0.007251   4.748480  -0.021181  -0.021169   0.362668
    16  H    0.009379  -0.011929  -0.021181   0.696234  -0.036205  -0.007230
    17  H   -0.011858   0.009376  -0.021169  -0.036205   0.695700  -0.007249
    18  C    0.000401   0.000392   0.362668  -0.007230  -0.007249   4.751867
    19  H    0.007781  -0.001994   0.371755   0.009367  -0.011916  -0.021286
    20  H   -0.002008   0.007784   0.371595  -0.011894   0.009375  -0.021334
    21  C    0.000003   0.000003  -0.042989   0.000395   0.000394   0.357467
    22  H    0.000014  -0.000040  -0.020759   0.007790  -0.001993   0.371937
    23  H   -0.000040   0.000014  -0.021033  -0.002003   0.007785   0.372494
    24  C    0.000000   0.000000   0.007763   0.000004   0.000003  -0.039660
    25  H   -0.000012   0.000005  -0.006727   0.000014  -0.000039  -0.021374
    26  H    0.000005  -0.000012  -0.007168  -0.000040   0.000014  -0.020879
    27  C    0.000000   0.000000  -0.000418   0.000000   0.000000   0.007797
    28  H    0.000000   0.000000   0.000389  -0.000012   0.000005  -0.006612
    29  H    0.000000   0.000000   0.000297   0.000005  -0.000012  -0.006226
    30  C    0.000000   0.000000   0.000011   0.000000   0.000000  -0.000604
    31  H    0.000000   0.000000  -0.000022   0.000000   0.000000   0.000630
    32  H    0.000000   0.000000  -0.000014   0.000000   0.000000   0.000463
    33  C    0.000000   0.000000   0.000000   0.000000   0.000000   0.000028
    34  H    0.000000   0.000000   0.000000   0.000000   0.000000   0.000004
    35  H    0.000000   0.000000   0.000000   0.000000   0.000000  -0.000001
    36  H    0.000000   0.000000  -0.000001   0.000000   0.000000   0.000049
              19         20         21         22         23         24
     1  C    0.000000   0.000000   0.000000   0.000000   0.000000   0.000000
     2  C    0.000003   0.000003   0.000000   0.000000   0.000000   0.000000
     3  H    0.000000   0.000000   0.000000   0.000000   0.000000   0.000000
     4  H    0.000000   0.000000   0.000000   0.000000   0.000000   0.000000
     5  H    0.000000   0.000000   0.000000   0.000000   0.000000   0.000000
     6  C    0.000376   0.000385   0.000008   0.000003   0.000004   0.000000
     7  H   -0.000013   0.000005   0.000000   0.000000   0.000000   0.000000
     8  H    0.000005  -0.000012   0.000000   0.000000   0.000000   0.000000
     9  C   -0.007113  -0.007108  -0.000461   0.000391   0.000388   0.000008
    10  H    0.000014  -0.000040   0.000000  -0.000012   0.000005   0.000000
    11  H   -0.000040   0.000014   0.000000   0.000005  -0.000012   0.000000
    12  C   -0.021209  -0.021214   0.008349  -0.007202  -0.007047  -0.000442
    13  H    0.007781  -0.002008   0.000003   0.000014  -0.000040   0.000000
    14  H   -0.001994   0.007784   0.000003  -0.000040   0.000014   0.000000
    15  C    0.371755   0.371595  -0.042989  -0.020759  -0.021033   0.007763
    16  H    0.009367  -0.011894   0.000395   0.007790  -0.002003   0.000004
    17  H   -0.011916   0.009375   0.000394  -0.001993   0.007785   0.000003
    18  C   -0.021286  -0.021334   0.357467   0.371937   0.372494  -0.039660
    19  H    0.695486  -0.036164  -0.007267   0.009357  -0.011838   0.000421
    20  H   -0.036164   0.696455  -0.007318  -0.011924   0.009340   0.000381
    21  C   -0.007267  -0.007318   4.782744  -0.021722  -0.021714   0.338399
    22  H    0.009357  -0.011924  -0.021722   0.695530  -0.036109  -0.007122
    23  H   -0.011838   0.009340  -0.021714  -0.036109   0.694249  -0.007296
    24  C    0.000421   0.000381   0.338399  -0.007122  -0.007296   4.805211
    25  H    0.007729  -0.001998   0.374610   0.009306  -0.011931  -0.024035
    26  H   -0.001985   0.007735   0.372220  -0.011820   0.009358  -0.023600
    27  C    0.000001   0.000005  -0.036775   0.000310   0.000348   0.332907
    28  H    0.000012  -0.000038  -0.021069   0.007630  -0.001932   0.376528
    29  H   -0.000035   0.000015  -0.026191  -0.001993   0.007660   0.386540
    30  C    0.000000   0.000000   0.011792   0.000021   0.000004  -0.064890
    31  H   -0.000011   0.000006  -0.009301   0.000011  -0.000018  -0.010528
    32  H    0.000005  -0.000010  -0.010590  -0.000042   0.000016  -0.010201
    33  C    0.000000   0.000000  -0.001326   0.000000  -0.000003   0.013161
    34  H    0.000000   0.000000  -0.000147   0.000000   0.000000   0.001031
    35  H    0.000000   0.000000   0.000057   0.000000   0.000000  -0.000635
    36  H    0.000000   0.000000  -0.000880  -0.000010   0.000005   0.005731
              25         26         27         28         29         30
     1  C    0.000000   0.000000   0.000000   0.000000   0.000000   0.000000
     2  C    0.000000   0.000000   0.000000   0.000000   0.000000   0.000000
     3  H    0.000000   0.000000   0.000000   0.000000   0.000000   0.000000
     4  H    0.000000   0.000000   0.000000   0.000000   0.000000   0.000000
     5  H    0.000000   0.000000   0.000000   0.000000   0.000000   0.000000
     6  C    0.000000   0.000000   0.000000   0.000000   0.000000   0.000000
     7  H    0.000000   0.000000   0.000000   0.000000   0.000000   0.000000
     8  H    0.000000   0.000000   0.000000   0.000000   0.000000   0.000000
     9  C    0.000004   0.000002   0.000000   0.000000   0.000000   0.000000
    10  H    0.000000   0.000000   0.000000   0.000000   0.000000   0.000000
    11  H    0.000000   0.000000   0.000000   0.000000   0.000000   0.000000
    12  C    0.000364   0.000402   0.000007   0.000003   0.000004   0.000000
    13  H   -0.000012   0.000005   0.000000   0.000000   0.000000   0.000000
    14  H    0.000005  -0.000012   0.000000   0.000000   0.000000   0.000000
    15  C   -0.006727  -0.007168  -0.000418   0.000389   0.000297   0.000011
    16  H    0.000014  -0.000040   0.000000  -0.000012   0.000005   0.000000
    17  H   -0.000039   0.000014   0.000000   0.000005  -0.000012   0.000000
    18  C   -0.021374  -0.020879   0.007797  -0.006612  -0.006226  -0.000604
    19  H    0.007729  -0.001985   0.000001   0.000012  -0.000035   0.000000
    20  H   -0.001998   0.007735   0.000005  -0.000038   0.000015   0.000000
    21  C    0.374610   0.372220  -0.036775  -0.021069  -0.026191   0.011792
    22  H    0.009306  -0.011820   0.000310   0.007630  -0.001993   0.000021
    23  H   -0.011931   0.009358   0.000348  -0.001932   0.007660   0.000004
    24  C   -0.024035  -0.023600   0.332907   0.376528   0.386540  -0.064890
    25  H    0.693187  -0.036504  -0.006434   0.009244  -0.011912   0.000372
    26  H   -0.036504   0.697975  -0.006275  -0.011962   0.009311   0.000403
    27  C   -0.006434  -0.006275   4.750411  -0.028443  -0.029222   0.396476
    28  H    0.009244  -0.011962  -0.028443   0.692582  -0.037004  -0.007638
    29  H   -0.011912   0.009311  -0.029222  -0.037004   0.684609  -0.005745
    30  C    0.000372   0.000403   0.396476  -0.007638  -0.005745   5.011579
    31  H    0.007050  -0.002060   0.362017   0.009276  -0.011128  -0.027839
    32  H   -0.001773   0.008159   0.372881  -0.011953   0.008767  -0.008289
    33  C   -0.000003  -0.000025  -0.097708   0.000192   0.000126   0.495616
    34  H   -0.000009   0.000001  -0.009112   0.000111   0.000731  -0.057871
    35  H    0.000001   0.000000   0.011051  -0.000033  -0.000079  -0.028838
    36  H   -0.000003  -0.000049  -0.061516   0.006905  -0.001396   0.371399
              31         32         33         34         35         36
     1  C    0.000000   0.000000   0.000000   0.000000   0.000000   0.000000
     2  C    0.000000   0.000000   0.000000   0.000000   0.000000   0.000000
     3  H    0.000000   0.000000   0.000000   0.000000   0.000000   0.000000
     4  H    0.000000   0.000000   0.000000   0.000000   0.000000   0.000000
     5  H    0.000000   0.000000   0.000000   0.000000   0.000000   0.000000
     6  C    0.000000   0.000000   0.000000   0.000000   0.000000   0.000000
     7  H    0.000000   0.000000   0.000000   0.000000   0.000000   0.000000
     8  H    0.000000   0.000000   0.000000   0.000000   0.000000   0.000000
     9  C    0.000000   0.000000   0.000000   0.000000   0.000000   0.000000
    10  H    0.000000   0.000000   0.000000   0.000000   0.000000   0.000000
    11  H    0.000000   0.000000   0.000000   0.000000   0.000000   0.000000
    12  C    0.000001   0.000000   0.000000   0.000000   0.000000   0.000000
    13  H    0.000000   0.000000   0.000000   0.000000   0.000000   0.000000
    14  H    0.000000   0.000000   0.000000   0.000000   0.000000   0.000000
    15  C   -0.000022  -0.000014   0.000000   0.000000   0.000000  -0.000001
    16  H    0.000000   0.000000   0.000000   0.000000   0.000000   0.000000
    17  H    0.000000   0.000000   0.000000   0.000000   0.000000   0.000000
    18  C    0.000630   0.000463   0.000028   0.000004  -0.000001   0.000049
    19  H   -0.000011   0.000005   0.000000   0.000000   0.000000   0.000000
    20  H    0.000006  -0.000010   0.000000   0.000000   0.000000   0.000000
    21  C   -0.009301  -0.010590  -0.001326  -0.000147   0.000057  -0.000880
    22  H    0.000011  -0.000042   0.000000   0.000000   0.000000  -0.000010
    23  H   -0.000018   0.000016  -0.000003   0.000000   0.000000   0.000005
    24  C   -0.010528  -0.010201   0.013161   0.001031  -0.000635   0.005731
    25  H    0.007050  -0.001773  -0.000003  -0.000009   0.000001  -0.000003
    26  H   -0.002060   0.008159  -0.000025   0.000001   0.000000  -0.000049
    27  C    0.362017   0.372881  -0.097708  -0.009112   0.011051  -0.061516
    28  H    0.009276  -0.011953   0.000192   0.000111  -0.000033   0.006905
    29  H   -0.011128   0.008767   0.000126   0.000731  -0.000079  -0.001396
    30  C   -0.027839  -0.008289   0.495616  -0.057871  -0.028838   0.371399
    31  H    0.675332  -0.038310   0.007530   0.003266  -0.001867   0.010108
    32  H   -0.038310   0.646323   0.001045  -0.000056  -0.000385  -0.011469
    33  C    0.007530   0.001045   5.073776   0.396406   0.374417  -0.058800
    34  H    0.003266  -0.000056   0.396406   0.636770  -0.051322   0.012523
    35  H   -0.001867  -0.000385   0.374417  -0.051322   0.635753  -0.009446
    36  H    0.010108  -0.011469  -0.058800   0.012523  -0.009446   0.687164
 Mulliken charges:
               1
     1  C   -0.053484
     2  C   -0.078621
     3  H    0.035054
     4  H    0.032869
     5  H    0.032776
     6  C   -0.057619
     7  H    0.026879
     8  H    0.026791
     9  C   -0.036618
    10  H    0.019287
    11  H    0.019435
    12  C   -0.037213
    13  H    0.018295
    14  H    0.018088
    15  C   -0.037305
    16  H    0.018184
    17  H    0.018494
    18  C   -0.036820
    19  H    0.018557
    20  H    0.017966
    21  C   -0.038692
    22  H    0.018442
    23  H    0.019306
    24  C   -0.079679
    25  H    0.020868
    26  H    0.016793
    27  C    0.041689
    28  H    0.023819
    29  H    0.032879
    30  C   -0.085960
    31  H    0.025859
    32  H    0.055433
    33  C   -0.204433
    34  H    0.067672
    35  H    0.071327
    36  H    0.049686
 Sum of Mulliken charges =   0.00000
 Mulliken charges with hydrogens summed into heavy atoms:
               1
     1  C    0.047214
     2  C   -0.024952
     6  C   -0.018897
     9  C   -0.000236
    12  C   -0.000536
    15  C   -0.000782
    18  C    0.000928
    21  C   -0.001032
    24  C   -0.022982
    27  C    0.122981
    30  C   -0.036274
    33  C   -0.065434
 Electronic spatial extent (au):  <R**2>=           6925.5075
 Charge=              0.0000 electrons
 Dipole moment (field-independent basis, Debye):
    X=             -0.8871    Y=              0.2522    Z=             -0.3778  Tot=              0.9966
 Quadrupole moment (field-independent basis, Debye-Ang):
   XX=            -91.4421   YY=            -80.0997   ZZ=            -79.2496
   XY=              1.1441   XZ=             -1.8022   YZ=             -0.5144
 Traceless Quadrupole moment (field-independent basis, Debye-Ang):
   XX=             -7.8450   YY=              3.4974   ZZ=              4.3475
   XY=              1.1441   XZ=             -1.8022   YZ=             -0.5144
 Octapole moment (field-independent basis, Debye-Ang**2):
  XXX=            -86.5582  YYY=              0.4127  ZZZ=             -2.0482  XYY=              2.8373
  XXY=             15.6592  XXZ=             -6.9332  XZZ=             -5.9829  YZZ=             -0.8087
  YYZ=              0.2492  XYZ=             -0.9016
 Hexadecapole moment (field-independent basis, Debye-Ang**3):
 XXXX=         -10090.1176 YYYY=           -275.4192 ZZZZ=           -196.2131 XXXY=             68.1936
 XXXZ=            -20.4517 YYYX=              1.6196 YYYZ=             -4.7108 ZZZX=            -11.1618
 ZZZY=              0.8580 XXYY=          -1575.7580 XXZZ=          -1575.1001 YYZZ=            -71.5103
 XXYZ=             -9.1302 YYXZ=              2.0640 ZZXY=             -3.5345
 N-N= 6.546624163105D+02 E-N=-2.395541858768D+03  KE= 4.652153191653D+02
   1 Symmetry operations used in ECPInt.
 ECPInt:  NShTT=   10440 NPrTT=   35208 LenC2=    8759 LenP2D=   21884.
 LDataN:  DoStor=T MaxTD1= 5 Len=  102
 Calling FoFJK, ICntrl=      2127 FMM=F ISym2X=0 I1Cent= 0 IOpClX= 0 NMat=1 NMatS=1 NMatT=0.
 ***** Axes restored to original set *****
 -------------------------------------------------------------------
 Center     Atomic                   Forces (Hartrees/Bohr)
 Number     Number              X              Y              Z
 -------------------------------------------------------------------
      1        6           0.005899408    0.000008005    0.008757477
      2        6          -0.015543898   -0.000015066   -0.013125522
      3        1           0.003360678   -0.000001105   -0.004683251
      4        1          -0.002696734    0.003582610   -0.002779380
      5        1          -0.002699240   -0.003591412   -0.002780441
      6        6           0.021476932    0.000037625    0.014423017
      7        1           0.003036012    0.003845838    0.004287449
      8        1           0.003049285   -0.003841066    0.004285093
      9        6          -0.021510138   -0.000056155   -0.014641307
     10        1          -0.003901693   -0.004384766   -0.002727428
     11        1          -0.003905774    0.004368276   -0.002734542
     12        6           0.021617664    0.000099055    0.014592548
     13        1           0.003870987    0.004298532    0.002625749
     14        1           0.003902438   -0.004280285    0.002628234
     15        6          -0.021525386   -0.000078880   -0.014771953
     16        1          -0.003901622   -0.004323993   -0.002619364
     17        1          -0.003912678    0.004282698   -0.002638302
     18        6           0.021853309    0.000090144    0.014662123
     19        1           0.003858499    0.004319292    0.002634678
     20        1           0.003913806   -0.004288270    0.002647623
     21        6          -0.021435346   -0.000480074   -0.016330047
     22        1          -0.003862886   -0.004347525   -0.002609123
     23        1          -0.003900617    0.004284384   -0.002590111
     24        6           0.028211503   -0.003389503    0.005438400
     25        1           0.003707239    0.004360450    0.002697249
     26        1           0.004001674   -0.004505309    0.002745375
     27        6          -0.034569540    0.024236620   -0.051191023
     28        1          -0.003778610   -0.004254029   -0.002204978
     29        1          -0.002858931    0.003689642   -0.000816208
     30        6           0.038674363   -0.035672671   -0.024047016
     31        1           0.000543565    0.003616854    0.003033292
     32        1          -0.002011014   -0.006357712    0.005516354
     33        6          -0.021496156    0.039500612    0.029510759
     34        1           0.037169554    0.037842467   -0.003616313
     35        1          -0.047135640   -0.021059397    0.015924456
     36        1           0.012498986   -0.037535888    0.030496438
 -------------------------------------------------------------------
 Cartesian Forces:  Max     0.051191023 RMS     0.015273982
 -----------------------------------------------------------------------------------------------
                       Internal Coordinate Forces (Hartree/Bohr or radian)
  Cent   Atom   N1       Length/X         N2         Alpha/Y        N3         Beta/Z          J
 -----------------------------------------------------------------------------------------------
      1  C 
      2  C        1   0.001486(     1)
      3  H        1   0.004775(     2)      2   0.006680(    36)
      4  H        1   0.005149(     3)      2   0.002070(    37)      3  -0.001090(    70)     0
      5  H        1   0.005158(     4)      2   0.002065(    38)      3   0.001085(    71)     0
      6  C        2  -0.002993(     5)      1   0.010412(    39)      3  -0.000009(    72)     0
      7  H        2   0.006003(     6)      1   0.005085(    40)      3  -0.001128(    73)     0
      8  H        2   0.006005(     7)      1   0.005078(    41)      3   0.001148(    74)     0
      9  C        6  -0.002945(     8)      2   0.011574(    42)      1  -0.000035(    75)     0
     10  H        6   0.006353(     9)      2   0.001111(    43)      1  -0.002173(    76)     0
     11  H        6   0.006347(    10)      2   0.001110(    44)      1   0.002173(    77)     0
     12  C        9  -0.002900(    11)      6   0.011719(    45)      2  -0.000022(    78)     0
     13  H        9   0.006234(    12)      6   0.001219(    46)      2  -0.002097(    79)     0
     14  H        9   0.006240(    13)      6   0.001197(    47)      2   0.002124(    80)     0
     15  C       12  -0.002892(    14)      9   0.011713(    48)      6  -0.000037(    81)     0
     16  H       12   0.006265(    15)      9   0.001271(    49)      6  -0.002097(    82)     0
     17  H       12   0.006253(    16)      9   0.001264(    50)      6   0.002090(    83)     0
     18  C       15  -0.002797(    17)     12   0.011801(    51)      9  -0.000029(    84)     0
     19  H       15   0.006244(    18)     12   0.001248(    52)      9  -0.002082(    85)     0
     20  H       15   0.006262(    19)     12   0.001205(    53)      9   0.002109(    86)     0
     21  C       18  -0.002865(    20)     15   0.012018(    54)     12   0.000063(    87)     0
     22  H       18   0.006258(    21)     15   0.001218(    55)     12  -0.002065(    88)     0
     23  H       18   0.006235(    22)     15   0.001282(    56)     12   0.001973(    89)     0
     24  C       21  -0.001940(    23)     18   0.012676(    57)     15  -0.000301(    90)     0
     25  H       21   0.006221(    24)     18   0.001422(    58)     15  -0.001816(    91)     0
     26  H       21   0.006516(    25)     18   0.001210(    59)     15   0.002006(    92)     0
     27  C       24   0.005597(    26)     21   0.016094(    60)     18   0.002289(    93)     0
     28  H       24   0.006007(    27)     21   0.001588(    61)     18  -0.001465(    94)     0
     29  H       24   0.004643(    28)     21   0.001758(    62)     18  -0.000826(    95)     0
     30  C       27  -0.000424(    29)     24   0.040624(    63)     21   0.009239(    96)     0
     31  H       27   0.004172(    30)     24   0.003641(    64)     21   0.002820(    97)     0
     32  H       27   0.006024(    31)     24   0.007547(    65)     21  -0.009814(    98)     0
     33  C       30   0.076826(    32)     27   0.001599(    66)     24  -0.094994(    99)     0
     34  H       33   0.013399(    33)     30   0.009468(    67)     27  -0.089380(   100)     0
     35  H       33   0.013136(    34)     30   0.012779(    68)     27  -0.091749(   101)     0
     36  H       30   0.016689(    35)     27  -0.017327(    69)     24   0.084948(   102)     0
 -----------------------------------------------------------------------------------------------
 Internal  Forces:  Max     0.094994011 RMS     0.020741258

 GradGradGradGradGradGradGradGradGradGradGradGradGradGradGradGradGradGrad
 Berny optimization.
 Search for a local minimum.
 Step number   1 out of a maximum of  200
 All quantities printed in internal units (Hartrees-Bohrs-Radians)
 Second derivative matrix not updated -- first step.
 ITU=  0
     Eigenvalues ---    0.01014   0.01016   0.01028   0.01028   0.01028
     Eigenvalues ---    0.01031   0.01038   0.01071   0.01312   0.01975
     Eigenvalues ---    0.08427   0.13370   0.15083   0.15093   0.15113
     Eigenvalues ---    0.15114   0.15115   0.15120   0.15129   0.15296
     Eigenvalues ---    0.15820   0.16000   0.17237   0.17291   0.17292
     Eigenvalues ---    0.17292   0.17293   0.17293   0.17306   0.17324
     Eigenvalues ---    0.17543   0.19882   0.20945   0.23861   0.29418
     Eigenvalues ---    0.29426   0.29460   0.29461   0.29462   0.29462
     Eigenvalues ---    0.29463   0.29566   0.30331   0.32194   0.33834
     Eigenvalues ---    0.33966   0.33967   0.34027   0.34033   0.34033
     Eigenvalues ---    0.34036   0.34036   0.34037   0.34037   0.34037
     Eigenvalues ---    0.34037   0.34037   0.34037   0.34037   0.34037
     Eigenvalues ---    0.34064   0.34104   0.34104   0.34276   0.34277
     Eigenvalues ---    0.34299   0.35012   0.35313   0.35332   0.36582
     Eigenvalues ---    0.36627   0.36659   0.36681   0.36682   0.36682
     Eigenvalues ---    0.36686   0.36694   0.37162   0.39241   0.39324
     Eigenvalues ---    0.39326   0.39326   0.39328   0.39331   0.39340
     Eigenvalues ---    0.39352   0.39413   0.39726   0.42862   0.42864
     Eigenvalues ---    0.42864   0.42864   0.42874   0.42884   0.42897
     Eigenvalues ---    0.42926   0.43148   0.48000   0.53123   0.57454
     Eigenvalues --- 1000.000001000.00000
 RFO step:  Lambda=-7.87494125D-02 EMin= 1.01429145D-02
 Linear search not attempted -- first point.
 Maximum step size (   0.300) exceeded in Quadratic search.
    -- Step size scaled by   0.599
 Variable       Old X    -DE/DX   Delta X   Delta X   Delta X     New X
                                 (Linear)    (Quad)   (Total)
    B1        2.87308   0.00149   0.00000   0.00233   0.00233   2.87541
    B2        2.06829   0.00477   0.00000   0.00678   0.00678   2.07507
    A2        1.92443   0.00668   0.00000   0.01344   0.01344   1.93786
    B3        2.06866   0.00515   0.00000   0.00732   0.00732   2.07598
    A3        1.93731   0.00207   0.00000   0.00104   0.00104   1.93835
    D3        4.19337  -0.00109   0.00000  -0.00357  -0.00357   4.18980
    B4        2.06865   0.00516   0.00000   0.00733   0.00733   2.07598
    A4        1.93737   0.00206   0.00000   0.00108   0.00108   1.93845
    D4        2.08990   0.00109   0.00000   0.00379   0.00379   2.09370
    B5        2.88837  -0.00299   0.00000  -0.00479  -0.00479   2.88358
    A5        1.94593   0.01041   0.00000   0.01401   0.01401   1.95994
    D5        3.14200  -0.00001   0.00000  -0.00210  -0.00210   3.13990
    B6        2.07156   0.00600   0.00000   0.00857   0.00857   2.08012
    A6        1.90492   0.00508   0.00000   0.00585   0.00585   1.91078
    D6        1.02042  -0.00113   0.00000  -0.00401  -0.00401   1.01642
    B7        2.07156   0.00601   0.00000   0.00857   0.00857   2.08013
    A7        1.90497   0.00508   0.00000   0.00598   0.00598   1.91095
    D7        5.26348   0.00115   0.00000   0.00164   0.00164   5.26513
    B8        2.89047  -0.00295   0.00000  -0.00473  -0.00473   2.88574
    A8        1.94309   0.01157   0.00000   0.01930   0.01930   1.96239
    D8        3.14277  -0.00003   0.00000  -0.00507  -0.00507   3.13770
    B9        2.07275   0.00635   0.00000   0.00908   0.00908   2.08183
    A9        1.91232   0.00111   0.00000  -0.00234  -0.00234   1.90998
    D9        1.02439  -0.00217   0.00000  -0.00899  -0.00899   1.01540
   B10        2.07275   0.00635   0.00000   0.00908   0.00908   2.08182
   A10        1.91235   0.00111   0.00000  -0.00139  -0.00139   1.91096
   D10        5.26097   0.00217   0.00000   0.00378   0.00378   5.26475
   B11        2.89051  -0.00290   0.00000  -0.00465  -0.00465   2.88585
   A11        1.94306   0.01172   0.00000   0.01862   0.01862   1.96168
   D11        3.14246  -0.00002   0.00000  -0.00203  -0.00203   3.14042
   B12        2.07269   0.00623   0.00000   0.00891   0.00891   2.08160
   A12        1.91222   0.00122   0.00000  -0.00164  -0.00164   1.91058
[...]
     5  H    0.008645  -0.009919   0.000439   0.007717  -0.001909  -0.000007
     6  C   -0.024675  -0.024768   0.366770   0.372540   0.372560  -0.039169
     7  H    0.692637  -0.036017  -0.007354   0.009821  -0.012027   0.000331
     8  H   -0.036017   0.692815  -0.007332  -0.011988   0.009820   0.000337
     9  C   -0.007354  -0.007332   4.747301  -0.021951  -0.021988   0.368836
    10  H    0.009821  -0.011988  -0.021951   0.699810  -0.038182  -0.007528
    11  H   -0.012027   0.009820  -0.021988  -0.038182   0.699586  -0.007516
    12  C    0.000331   0.000337   0.368836  -0.007528  -0.007516   4.742149
    13  H    0.008379  -0.002094   0.370310   0.009703  -0.012015  -0.022444
    14  H   -0.002085   0.008376   0.370168  -0.012062   0.009703  -0.022401
    15  C    0.000004   0.000004  -0.040862   0.000403   0.000407   0.373116
    16  H    0.000020  -0.000042  -0.022725   0.008119  -0.002027   0.369919
    17  H   -0.000042   0.000020  -0.022693  -0.002020   0.008126   0.370034
    18  C    0.000000   0.000000   0.007963   0.000001   0.000001  -0.042549
    19  H   -0.000011   0.000004  -0.007069   0.000018  -0.000041  -0.022555
    20  H    0.000004  -0.000011  -0.007104  -0.000041   0.000018  -0.022529
    21  C    0.000000   0.000000  -0.000410   0.000000   0.000000   0.008052
    22  H    0.000000   0.000000   0.000360  -0.000011   0.000005  -0.007151
    23  H    0.000000   0.000000   0.000341   0.000004  -0.000011  -0.007055
    24  C    0.000000   0.000000   0.000006   0.000000   0.000000  -0.000401
    25  H    0.000000   0.000000   0.000004   0.000000   0.000000   0.000354
    26  H    0.000000   0.000000   0.000002   0.000000   0.000000   0.000322
    27  C    0.000000   0.000000   0.000000   0.000000   0.000000   0.000006
    28  H    0.000000   0.000000   0.000000   0.000000   0.000000   0.000001
    29  H    0.000000   0.000000   0.000000   0.000000   0.000000  -0.000004
    30  C    0.000000   0.000000   0.000000   0.000000   0.000000   0.000000
    31  H    0.000000   0.000000   0.000000   0.000000   0.000000   0.000000
    32  H    0.000000   0.000000   0.000000   0.000000   0.000000   0.000000
    33  C    0.000000   0.000000   0.000000   0.000000   0.000000   0.000000
    34  H    0.000000   0.000000   0.000000   0.000000   0.000000   0.000000
    35  H    0.000000   0.000000   0.000000   0.000000   0.000000   0.000000
    36  H    0.000000   0.000000   0.000000   0.000000   0.000000   0.000000
              13         14         15         16         17         18
     1  C    0.000274   0.000268   0.000007   0.000007   0.000007   0.000000
     2  C   -0.006676  -0.006690  -0.000377   0.000293   0.000291   0.000006
     3  H    0.000008   0.000008   0.000000   0.000000   0.000000   0.000000
     4  H   -0.000051   0.000025   0.000000   0.000003  -0.000009   0.000000
     5  H    0.000025  -0.000050   0.000000  -0.000009   0.000003   0.000000
     6  C   -0.023516  -0.023460   0.007682  -0.007046  -0.007060  -0.000405
     7  H    0.008379  -0.002085   0.000004   0.000020  -0.000042   0.000000
     8  H   -0.002094   0.008376   0.000004  -0.000042   0.000020   0.000000
     9  C    0.370310   0.370168  -0.040862  -0.022725  -0.022693   0.007963
    10  H    0.009703  -0.012062   0.000403   0.008119  -0.002020   0.000001
    11  H   -0.012015   0.009703   0.000407  -0.002027   0.008126   0.000001
    12  C   -0.022444  -0.022401   0.373116   0.369919   0.370034  -0.042549
    13  H    0.699014  -0.037415  -0.007312   0.009646  -0.012013   0.000365
    14  H   -0.037415   0.699297  -0.007327  -0.012011   0.009641   0.000367
    15  C   -0.007312  -0.007327   4.737728  -0.022334  -0.022344   0.373591
    16  H    0.009646  -0.012011  -0.022334   0.698708  -0.037275  -0.007335
    17  H   -0.012013   0.009641  -0.022344  -0.037275   0.698211  -0.007269
    18  C    0.000365   0.000367   0.373591  -0.007335  -0.007269   4.737183
    19  H    0.008171  -0.002025   0.370386   0.009622  -0.012000  -0.022763
    20  H   -0.002025   0.008177   0.370030  -0.012029   0.009632  -0.022714
    21  C    0.000003   0.000004  -0.041041   0.000367   0.000366   0.371149
    22  H    0.000019  -0.000041  -0.021915   0.008171  -0.002017   0.370429
    23  H   -0.000040   0.000019  -0.021834  -0.002004   0.008116   0.369859
    24  C    0.000000   0.000000   0.007460   0.000003   0.000005  -0.039489
    25  H   -0.000011   0.000005  -0.007281   0.000019  -0.000040  -0.020399
    26  H    0.000005  -0.000011  -0.006962  -0.000038   0.000018  -0.023095
    27  C    0.000000   0.000000  -0.000370   0.000000   0.000000   0.007544
    28  H    0.000000   0.000000   0.000446  -0.000011   0.000005  -0.006498
    29  H    0.000000   0.000000   0.000349   0.000004  -0.000010  -0.007997
    30  C    0.000000   0.000000   0.000005   0.000000   0.000000  -0.000274
    31  H    0.000000   0.000000   0.000008   0.000000   0.000000   0.000529
    32  H    0.000000   0.000000  -0.000008   0.000000   0.000000   0.000211
    33  C    0.000000   0.000000   0.000000   0.000000   0.000000   0.000005
    34  H    0.000000   0.000000   0.000000   0.000000   0.000000   0.000000
    35  H    0.000000   0.000000   0.000000   0.000000   0.000000   0.000000
    36  H    0.000000   0.000000   0.000003   0.000000   0.000000  -0.000046
              19         20         21         22         23         24
     1  C    0.000000   0.000000   0.000000   0.000000   0.000000   0.000000
     2  C    0.000003   0.000003   0.000000   0.000000   0.000000   0.000000
     3  H    0.000000   0.000000   0.000000   0.000000   0.000000   0.000000
     4  H    0.000000   0.000000   0.000000   0.000000   0.000000   0.000000
     5  H    0.000000   0.000000   0.000000   0.000000   0.000000   0.000000
     6  C    0.000347   0.000347   0.000007   0.000003   0.000004   0.000000
     7  H   -0.000011   0.000004   0.000000   0.000000   0.000000   0.000000
     8  H    0.000004  -0.000011   0.000000   0.000000   0.000000   0.000000
     9  C   -0.007069  -0.007104  -0.000410   0.000360   0.000341   0.000006
    10  H    0.000018  -0.000041   0.000000  -0.000011   0.000004   0.000000
    11  H   -0.000041   0.000018   0.000000   0.000005  -0.000011   0.000000
    12  C   -0.022555  -0.022529   0.008052  -0.007151  -0.007055  -0.000401
    13  H    0.008171  -0.002025   0.000003   0.000019  -0.000040   0.000000
    14  H   -0.002025   0.008177   0.000004  -0.000041   0.000019   0.000000
    15  C    0.370386   0.370030  -0.041041  -0.021915  -0.021834   0.007460
    16  H    0.009622  -0.012029   0.000367   0.008171  -0.002004   0.000003
    17  H   -0.012000   0.009632   0.000366  -0.002017   0.008116   0.000005
    18  C   -0.022763  -0.022714   0.371149   0.370429   0.369859  -0.039489
    19  H    0.697769  -0.037222  -0.007268   0.009588  -0.012023   0.000390
    20  H   -0.037222   0.698695  -0.007302  -0.011946   0.009575   0.000385
    21  C   -0.007268  -0.007302   4.757499  -0.022795  -0.022276   0.349691
    22  H    0.009588  -0.011946  -0.022795   0.696341  -0.037050  -0.007154
    23  H   -0.012023   0.009575  -0.022276  -0.037050   0.695851  -0.007294
    24  C    0.000390   0.000385   0.349691  -0.007154  -0.007294   4.809003
    25  H    0.008188  -0.002029   0.366953   0.009506  -0.011917  -0.018087
    26  H   -0.001993   0.008063   0.370345  -0.012103   0.009596  -0.024454
    27  C   -0.000003   0.000003  -0.037149   0.000264   0.000396   0.373312
    28  H    0.000017  -0.000044  -0.020919   0.008102  -0.002039   0.372246
    29  H   -0.000035   0.000014  -0.019592  -0.001917   0.007729   0.374767
    30  C    0.000001   0.000000   0.005522   0.000004   0.000001  -0.030878
    31  H   -0.000014   0.000006  -0.005338   0.000006  -0.000022  -0.025446
    32  H    0.000005  -0.000011  -0.010302  -0.000027   0.000012  -0.014516
    33  C    0.000000   0.000000  -0.000425   0.000000   0.000000   0.007347
    34  H    0.000000   0.000000   0.000014   0.000000   0.000000  -0.000298
    35  H    0.000000   0.000000  -0.000004   0.000000   0.000000   0.000169
    36  H    0.000000   0.000000   0.002524  -0.000047   0.000018  -0.028205
              25         26         27         28         29         30
     1  C    0.000000   0.000000   0.000000   0.000000   0.000000   0.000000
     2  C    0.000000   0.000000   0.000000   0.000000   0.000000   0.000000
     3  H    0.000000   0.000000   0.000000   0.000000   0.000000   0.000000
     4  H    0.000000   0.000000   0.000000   0.000000   0.000000   0.000000
     5  H    0.000000   0.000000   0.000000   0.000000   0.000000   0.000000
     6  C    0.000000   0.000000   0.000000   0.000000   0.000000   0.000000
     7  H    0.000000   0.000000   0.000000   0.000000   0.000000   0.000000
     8  H    0.000000   0.000000   0.000000   0.000000   0.000000   0.000000
     9  C    0.000004   0.000002   0.000000   0.000000   0.000000   0.000000
    10  H    0.000000   0.000000   0.000000   0.000000   0.000000   0.000000
    11  H    0.000000   0.000000   0.000000   0.000000   0.000000   0.000000
    12  C    0.000354   0.000322   0.000006   0.000001  -0.000004   0.000000
    13  H   -0.000011   0.000005   0.000000   0.000000   0.000000   0.000000
    14  H    0.000005  -0.000011   0.000000   0.000000   0.000000   0.000000
    15  C   -0.007281  -0.006962  -0.000370   0.000446   0.000349   0.000005
    16  H    0.000019  -0.000038   0.000000  -0.000011   0.000004   0.000000
    17  H   -0.000040   0.000018   0.000000   0.000005  -0.000010   0.000000
    18  C   -0.020399  -0.023095   0.007544  -0.006498  -0.007997  -0.000274
    19  H    0.008188  -0.001993  -0.000003   0.000017  -0.000035   0.000001
    20  H   -0.002029   0.008063   0.000003  -0.000044   0.000014   0.000000
    21  C    0.366953   0.370345  -0.037149  -0.020919  -0.019592   0.005522
    22  H    0.009506  -0.012103   0.000264   0.008102  -0.001917   0.000004
    23  H   -0.011917   0.009596   0.000396  -0.002039   0.007729   0.000001
    24  C   -0.018087  -0.024454   0.373312   0.372246   0.374767  -0.030878
    25  H    0.691891  -0.036911  -0.008310   0.009139  -0.012125   0.000397
    26  H   -0.036911   0.698685  -0.006394  -0.011125   0.009470   0.000825
    27  C   -0.008310  -0.006394   4.735158  -0.029030  -0.030421   0.339163
    28  H    0.009139  -0.011125  -0.029030   0.683271  -0.035848  -0.010565
    29  H   -0.012125   0.009470  -0.030421  -0.035848   0.678358   0.003571
    30  C    0.000397   0.000825   0.339163  -0.010565   0.003571   4.800054
    31  H    0.007965  -0.002244   0.347673   0.009798  -0.011678  -0.037727
    32  H   -0.001681   0.008663   0.380900  -0.012818   0.009495  -0.008422
    33  C    0.000021   0.000014  -0.069738   0.000102   0.000607   0.687382
    34  H   -0.000001   0.000000  -0.001065   0.000069  -0.000073  -0.029306
    35  H    0.000000   0.000001   0.005401  -0.000300   0.000076  -0.020497
    36  H    0.000051  -0.000194  -0.044842   0.017874  -0.004964   0.319883
              31         32         33         34         35         36
     1  C    0.000000   0.000000   0.000000   0.000000   0.000000   0.000000
     2  C    0.000000   0.000000   0.000000   0.000000   0.000000   0.000000
     3  H    0.000000   0.000000   0.000000   0.000000   0.000000   0.000000
     4  H    0.000000   0.000000   0.000000   0.000000   0.000000   0.000000
     5  H    0.000000   0.000000   0.000000   0.000000   0.000000   0.000000
     6  C    0.000000   0.000000   0.000000   0.000000   0.000000   0.000000
     7  H    0.000000   0.000000   0.000000   0.000000   0.000000   0.000000
     8  H    0.000000   0.000000   0.000000   0.000000   0.000000   0.000000
     9  C    0.000000   0.000000   0.000000   0.000000   0.000000   0.000000
    10  H    0.000000   0.000000   0.000000   0.000000   0.000000   0.000000
    11  H    0.000000   0.000000   0.000000   0.000000   0.000000   0.000000
    12  C    0.000000   0.000000   0.000000   0.000000   0.000000   0.000000
    13  H    0.000000   0.000000   0.000000   0.000000   0.000000   0.000000
    14  H    0.000000   0.000000   0.000000   0.000000   0.000000   0.000000
    15  C    0.000008  -0.000008   0.000000   0.000000   0.000000   0.000003
    16  H    0.000000   0.000000   0.000000   0.000000   0.000000   0.000000
    17  H    0.000000   0.000000   0.000000   0.000000   0.000000   0.000000
    18  C    0.000529   0.000211   0.000005   0.000000   0.000000  -0.000046
    19  H   -0.000014   0.000005   0.000000   0.000000   0.000000   0.000000
    20  H    0.000006  -0.000011   0.000000   0.000000   0.000000   0.000000
    21  C   -0.005338  -0.010302  -0.000425   0.000014  -0.000004   0.002524
    22  H    0.000006  -0.000027   0.000000   0.000000   0.000000  -0.000047
    23  H   -0.000022   0.000012   0.000000   0.000000   0.000000   0.000018
    24  C   -0.025446  -0.014516   0.007347  -0.000298   0.000169  -0.028205
    25  H    0.007965  -0.001681   0.000021  -0.000001   0.000000   0.000051
    26  H   -0.002244   0.008663   0.000014   0.000000   0.000001  -0.000194
    27  C    0.347673   0.380900  -0.069738  -0.001065   0.005401  -0.044842
    28  H    0.009798  -0.012818   0.000102   0.000069  -0.000300   0.017874
    29  H   -0.011678   0.009495   0.000607  -0.000073   0.000076  -0.004964
    30  C   -0.037727  -0.008422   0.687382  -0.029306  -0.020497   0.319883
    31  H    0.712864  -0.041242   0.000210   0.001801  -0.000744   0.018015
    32  H   -0.041242   0.663339  -0.003076  -0.000797   0.000988  -0.024679
    33  C    0.000210  -0.003076   4.887096   0.349483   0.409939  -0.067727
    34  H    0.001801  -0.000797   0.349483   0.684307  -0.059506   0.018364
    35  H   -0.000744   0.000988   0.409939  -0.059506   0.658872  -0.049376
    36  H    0.018015  -0.024679  -0.067727   0.018364  -0.049376   0.816554
 Mulliken charges:
               1
     1  C   -0.062138
     2  C   -0.077972
     3  H    0.039460
     4  H    0.035219
     5  H    0.035208
     6  C   -0.062504
     7  H    0.028325
     8  H    0.028213
     9  C   -0.040373
    10  H    0.020514
    11  H    0.020642
    12  C   -0.039441
    13  H    0.019693
    14  H    0.019522
    15  C   -0.041662
    16  H    0.019983
    17  H    0.020317
    18  C   -0.038371
    19  H    0.020512
    20  H    0.020053
    21  C   -0.037675
    22  H    0.021377
    23  H    0.022043
    24  C   -0.098560
    25  H    0.024298
    26  H    0.019515
    27  C    0.037502
    28  H    0.028127
    29  H    0.040224
    30  C   -0.019137
    31  H    0.025581
    32  H    0.053963
    33  C   -0.201241
    34  H    0.037008
    35  H    0.054981
    36  H    0.026796
 Sum of Mulliken charges =   0.00000
 Mulliken charges with hydrogens summed into heavy atoms:
               1
     1  C    0.047749
     2  C   -0.021435
     6  C   -0.021348
     9  C   -0.001158
    12  C    0.000859
    15  C   -0.001097
    18  C    0.005049
    21  C    0.006138
    24  C   -0.030210
    27  C    0.117046
    30  C    0.007659
    33  C   -0.109253
 Electronic spatial extent (au):  <R**2>=           7125.1648
 Charge=              0.0000 electrons
 Dipole moment (field-independent basis, Debye):
    X=             -1.0115    Y=              0.1764    Z=             -0.5162  Tot=              1.1492
 Quadrupole moment (field-independent basis, Debye-Ang):
   XX=            -89.3809   YY=            -81.5380   ZZ=            -79.2788
   XY=              0.1814   XZ=             -3.1145   YZ=              0.8895
 Traceless Quadrupole moment (field-independent basis, Debye-Ang):
   XX=             -5.9817   YY=              1.8612   ZZ=              4.1204
   XY=              0.1814   XZ=             -3.1145   YZ=              0.8895
 Octapole moment (field-independent basis, Debye-Ang**2):
  XXX=            -67.5753  YYY=              1.4832  ZZZ=             -1.1193  XYY=             -5.0268
  XXY=              1.3570  XXZ=            -18.4712  XZZ=             -2.1286  YZZ=             -0.0506
  YYZ=             -1.2032  XYZ=              5.0070
 Hexadecapole moment (field-independent basis, Debye-Ang**3):
 XXXX=         -10007.5447 YYYY=           -287.3620 ZZZZ=           -164.2107 XXXY=            -57.1251
 XXXZ=           -104.8681 YYYX=              9.2156 YYYZ=              3.4446 ZZZX=             -8.2865
 ZZZY=             -0.1579 XXYY=          -1679.1483 XXZZ=          -1606.5846 YYZZ=            -69.9256
 XXYZ=             39.7711 YYXZ=             -7.5091 ZZXY=              1.4409
 N-N= 6.503958955914D+02 E-N=-2.386510778618D+03  KE= 4.648405497186D+02
 1\1\GINC-NODE0203\POpt\RM06\def2SVP\C12H24\JGOODPAS\17-Oct-2017\1\\# O
 pt=(Z-mat,maxcycle=200) m06/def2svp Integral=SuperFineGrid\\C12H24\\0,
 1\C\C,1,B1\H,1,B2,2,A2\H,1,B3,2,A3,3,D3,0\H,1,B4,2,A4,3,D4,0\C,2,B5,1,
 A5,3,D5,0\H,2,B6,1,A6,3,D6,0\H,2,B7,1,A7,3,D7,0\C,6,B8,2,A8,1,D8,0\H,6
 ,B9,2,A9,1,D9,0\H,6,B10,2,A10,1,D10,0\C,9,B11,6,A11,2,D11,0\H,9,B12,6,
 A12,2,D12,0\H,9,B13,6,A13,2,D13,0\C,12,B14,9,A14,6,D14,0\H,12,B15,9,A1
 5,6,D15,0\H,12,B16,9,A16,6,D16,0\C,15,B17,12,A17,9,D17,0\H,15,B18,12,A
 18,9,D18,0\H,15,B19,12,A19,9,D19,0\C,18,B20,15,A20,12,D20,0\H,18,B21,1
 5,A21,12,D21,0\H,18,B22,15,A22,12,D22,0\C,21,B23,18,A23,15,D23,0\H,21,
 B24,18,A24,15,D24,0\H,21,B25,18,A25,15,D25,0\C,24,B26,21,A26,18,D26,0\
 H,24,B27,21,A27,18,D27,0\H,24,B28,21,A28,18,D28,0\C,27,B29,24,A29,21,D
 29,0\H,27,B30,24,A30,21,D30,0\H,27,B31,24,A31,21,D31,0\C,30,B32,27,A32
 ,24,D32,0\H,33,B33,30,A33,27,D33,0\H,33,B34,30,A34,27,D34,0\H,30,B35,2
 7,A35,24,D35,0\\B1=1.51594383\B2=1.10116704\A2=112.25869411\B3=1.10338
 335\A3=111.18667807\D3=239.58641498\B4=1.10337004\A4=111.1978105\D4=12
 0.44003895\B5=1.51874131\A5=113.12367557\D5=179.86422712\B6=1.10690327
 \A6=109.99754225\D6=57.61788685\B7=1.10691617\A7=109.99814223\D7=302.1
 1652785\B8=1.51751636\A8=113.74792848\D8=179.93854017\B9=1.10862275\A9
 =109.3783116\D9=57.28063524\B10=1.10861353\A10=109.37001036\D10=302.58
 252459\B11=1.51765828\A11=113.75415155\D11=179.91525555\B12=1.10845002
 \A12=109.38654181\D12=57.29384757\B13=1.10845324\A13=109.3907391\D13=3
 02.54431971\B14=1.5176404\A14=113.70759167\D14=179.99561502\B15=1.1084
 0541\A15=109.40375921\D15=57.37448123\B16=1.10838098\A16=109.4024246\D
 16=302.60506904\B17=1.51760547\A17=113.70487216\D17=179.97719119\B18=1
 .10835409\A18=109.39771552\D18=57.36598886\B19=1.10840702\A19=109.3992
 9417\D19=302.59821389\B20=1.51772801\A20=113.64171024\D20=179.95761243
 \B21=1.10827888\A21=109.40709458\D21=57.31196999\B22=1.10827007\A22=10
 9.42213221\D22=302.50800025\B23=1.51748823\A23=113.43157699\D23=179.67
 533541\B24=1.10775659\A24=109.35285863\D24=57.01402447\B25=1.10853273\
 A25=109.41059523\D25=302.16532858\B26=1.51978602\A26=112.75773515\D26=
 178.35237366\B27=1.10793105\A27=109.5477621\D27=55.98641859\B28=1.1063
 5294\A28=109.71237073\D28=300.64670654\B29=1.51281445\A29=113.35807419
 \D29=182.16674776\B30=1.11050609\A30=108.16404858\D30=53.10662114\B31=
 1.10564299\A31=109.79158443\D31=298.56517044\B32=1.34531032\A32=161.08
 008107\D32=156.38786485\B33=1.10427052\A33=124.65604308\B34=1.09480551
 \A34=120.76951668\B35=1.12553746\A35=89.986547\D35=52.64763393\D33=89.
 \D34=269.\\Version=ES64L-G09RevD.01\State=1-A\HF=-470.9068129\RMSD=4.2
 07e-09\RMSF=1.090e-02\Dipole=0.3041531,-0.1886163,-0.2762847\Quadrupol
 e=-0.9995492,3.2501738,-2.2506246,1.61714,2.8420059,-1.5328934\PG=C01 
 [X(C12H24)]\\@


 WHERE THERE IS MUCH DESIRE TO LEARN, THERE OF NECESSITY WILL BE
 MUCH ARGUING, MUCH WRITING, MANY OPINIONS; FOR OPINION IN GOOD MEN
 IS BUT KNOWLEDGE IN THE MAKING. -- JOHN MILTON.
 Job cpu time:       0 days 12 hours 17 minutes 34.6 seconds.
 File lengths (MBytes):  RWF=     40 Int=      0 D2E=      0 Chk=     17 Scr=      1
 Normal termination of Gaussian 09 at Tue Oct 17 18:29:36 2017.
42572.47user 1682.18system 1:40:35elapsed 733%CPU (0avgtext+0avgdata 7506932maxresident)k
328584inputs+4088328outputs (236major+1073235543minor)pagefaults 0swaps
