 Entering Gaussian System, Link 0=g09
 Initial command:
 /panfs/roc/msisoft/gaussian/g09.e01_mesabi/g09/l1.exe "/scratch/graha682/4575989.mesabim3.msi.umn.edu/Gau-9328.inp" -scrdir="/scratch/graha682/4575989.mesabim3.msi.umn.edu/"
 Entering Link 1 = /panfs/roc/msisoft/gaussian/g09.e01_mesabi/g09/l1.exe PID=      9329.
  
 Copyright (c) 1988,1990,1992,1993,1995,1998,2003,2009,2015,
            Gaussian, Inc.  All Rights Reserved.
  
 This is part of the Gaussian(R) 09 program.  It is based on
 the Gaussian(R) 03 system (copyright 2003, Gaussian, Inc.),
 the Gaussian(R) 98 system (copyright 1998, Gaussian, Inc.),
 the Gaussian(R) 94 system (copyright 1995, Gaussian, Inc.),
 the Gaussian 92(TM) system (copyright 1992, Gaussian, Inc.),
 the Gaussian 90(TM) system (copyright 1990, Gaussian, Inc.),
 the Gaussian 88(TM) system (copyright 1988, Gaussian, Inc.),
 the Gaussian 86(TM) system (copyright 1986, Carnegie Mellon
 University), and the Gaussian 82(TM) system (copyright 1983,
 Carnegie Mellon University). Gaussian is a federally registered
 trademark of Gaussian, Inc.
  
 This software contains proprietary and confidential information,
 including trade secrets, belonging to Gaussian, Inc.
  
 This software is provided under written license and may be
 used, copied, transmitted, or stored only in accord with that
 written license.
  
 The following legend is applicable only to US Government
 contracts under FAR:
  
                    RESTRICTED RIGHTS LEGEND
  
 Use, reproduction and disclosure by the US Government is
 subject to restrictions as set forth in subparagraphs (a)
 and (c) of the Commercial Computer Software - Restricted
 Rights clause in FAR 52.227-19.
  
 Gaussian, Inc.
 340 Quinnipiac St., Bldg. 40, Wallingford CT 06492
  
  
 ---------------------------------------------------------------
 Warning -- This program may not be used in any manner that
 competes with the business of Gaussian, Inc. or will provide
 assistance to any competitor of Gaussian, Inc.  The licensee
 of this program is prohibited from giving any competitor of
 Gaussian, Inc. access to this program.  By using this program,
 the user acknowledges that Gaussian, Inc. is engaged in the
 business of creating and licensing software in the field of
 computational chemistry and represents and warrants to the
 licensee that it is not a competitor of Gaussian, Inc. and that
 it will not use this program in any manner prohibited above.
 ---------------------------------------------------------------
  

 Cite this work as:
 Gaussian 09, Revision E.01,
 M. J. Frisch, G. W. Trucks, H. B. Schlegel, G. E. Scuseria, 
 M. A. Robb, J. R. Cheeseman, G. Scalmani, V. Barone, B. Mennucci, 
 G. A. Petersson, H. Nakatsuji, M. Caricato, X. Li, H. P. Hratchian, 
 A. F. Izmaylov, J. Bloino, G. Zheng, J. L. Sonnenberg, M. Hada, 
 M. Ehara, K. Toyota, R. Fukuda, J. Hasegawa, M. Ishida, T. Nakajima, 
 Y. Honda, O. Kitao, H. Nakai, T. Vreven, J. A. Montgomery, Jr., 
 J. E. Peralta, F. Ogliaro, M. Bearpark, J. J. Heyd, E. Brothers, 
 K. N. Kudin, V. N. Staroverov, T. Keith, R. Kobayashi, J. Normand, 
 K. Raghavachari, A. Rendell, J. C. Burant, S. S. Iyengar, J. Tomasi, 
 M. Cossi, N. Rega, J. M. Millam, M. Klene, J. E. Knox, J. B. Cross, 
 V. Bakken, C. Adamo, J. Jaramillo, R. Gomperts, R. E. Stratmann, 
 O. Yazyev, A. J. Austin, R. Cammi, C. Pomelli, J. W. Ochterski, 
 R. L. Martin, K. Morokuma, V. G. Zakrzewski, G. A. Voth, 
 P. Salvador, J. J. Dannenberg, S. Dapprich, A. D. Daniels, 
 O. Farkas, J. B. Foresman, J. V. Ortiz, J. Cioslowski, 
 and D. J. Fox, Gaussian, Inc., Wallingford CT, 2013.
 
 ******************************************
 Gaussian 09:  ES64L-G09RevE.01 30-Nov-2015
                 4-Dec-2017 
 ******************************************
 %LindaWorkers=in-cn0630
 %NProcShared=24
 Will use up to   24 processors via shared memory.
 %Mem=59800mb
 %chk=20171201_def2svp_m06_180c12h24.chk
 SetLPE:  input flags=" -workerwait 900 -opt "Tsnet.Node.lindarsharg: ssh " "
 SetLPE:    new flags=" -workerwait 900 -opt "Tsnet.Node.lindarsharg: ssh "  -nodelist 'in-cn0630'"
 Will use up to    1 processors via Linda.
 -----------------------------
 # hf/sto-3g geom=connectivity
 -----------------------------
 1/38=1,57=2/1;
 2/12=2,17=6,18=5,40=1/2;
 3/6=3,11=9,16=1,25=1,30=1/1,2,3;
 4//1;
 5/5=2,38=5/2;
 6/7=2,8=2,9=2,10=2,28=1/1;
 99/5=1,9=1/99;
 -------------------
 Title Card Required
 -------------------
 Symbolic Z-matrix:
 Charge =  0 Multiplicity = 1
 C                    -6.85444  -0.13488  -0.16841 
 H                    -7.04021  -0.81833   0.67765 
 H                    -6.88444  -0.74368  -1.08813 
 H                    -7.69705   0.57265  -0.21285 
 C                    -5.52036   0.56989  -0.02104 
 H                    -5.36871   1.27332  -0.86199 
 H                    -5.52345   1.19984   0.8891 
 C                    -4.34402  -0.3886    0.0425 
 H                    -4.3351   -1.02083  -0.8681 
 H                    -4.48926  -1.09459   0.8849 
 C                    -3.00139   0.30277   0.18946 
 H                    -3.00709   0.93031   1.10287 
 H                    -2.85037   1.00933  -0.6497 
 C                    -1.82468  -0.66362   0.24693 
 H                    -1.80066  -1.27769  -0.67321 
 H                    -1.99464  -1.37372   1.0812 
 C                    -0.51189   0.02301   0.42809 
 H                    -0.40546   0.63496   1.33864 
 C                     0.51189  -0.02301  -0.42809 
 H                     1.42066   0.55289  -0.18854 
 C                     0.52791  -0.76935  -1.72053 
 H                    -0.4133   -1.34004  -1.83345 
 H                     1.34036  -1.5236   -1.70785 
 C                     0.72898   0.13512  -2.93023 
 H                     1.66106   0.72052  -2.80109 
 H                    -0.08515   0.88505  -2.96224 
 C                     0.7836   -0.61904  -4.24572 
 H                     1.59993  -1.36825  -4.20747 
 H                    -0.14654  -1.20908  -4.37098 
 C                     0.97821   0.27783  -5.45578 
 H                     0.16206   1.02476  -5.48735 
 H                     1.90675   0.86592  -5.32476 
 C                     1.03022  -0.48923  -6.76234 
 H                     1.17179   0.17407  -7.62984 
 H                     1.85846  -1.21825  -6.76428 
 H                     0.09919  -1.05754  -6.92852 
 
                          Input orientation:                          
 ---------------------------------------------------------------------
 Center     Atomic      Atomic             Coordinates (Angstroms)
 Number     Number       Type             X           Y           Z
 ---------------------------------------------------------------------
      1          6           0       -6.854443   -0.134877   -0.168414
      2          1           0       -7.040212   -0.818328    0.677653
      3          1           0       -6.884443   -0.743683   -1.088126
      4          1           0       -7.697052    0.572652   -0.212848
      5          6           0       -5.520363    0.569890   -0.021040
      6          1           0       -5.368713    1.273324   -0.861988
      7          1           0       -5.523451    1.199843    0.889097
      8          6           0       -4.344023   -0.388597    0.042497
      9          1           0       -4.335099   -1.020835   -0.868101
     10          1           0       -4.489260   -1.094591    0.884904
     11          6           0       -3.001393    0.302765    0.189464
     12          1           0       -3.007087    0.930311    1.102873
     13          1           0       -2.850369    1.009328   -0.649702
     14          6           0       -1.824677   -0.663624    0.246928
     15          1           0       -1.800656   -1.277687   -0.673205
     16          1           0       -1.994641   -1.373719    1.081199
     17          6           0       -0.511885    0.023005    0.428088
     18          1           0       -0.405457    0.634962    1.338635
     19          6           0        0.511885   -0.023005   -0.428088
     20          1           0        1.420661    0.552893   -0.188542
     21          6           0        0.527906   -0.769353   -1.720531
     22          1           0       -0.413297   -1.340037   -1.833449
     23          1           0        1.340361   -1.523600   -1.707854
     24          6           0        0.728975    0.135116   -2.930232
     25          1           0        1.661065    0.720516   -2.801089
     26          1           0       -0.085154    0.885054   -2.962244
     27          6           0        0.783597   -0.619041   -4.245717
     28          1           0        1.599927   -1.368250   -4.207466
     29          1           0       -0.146544   -1.209076   -4.370978
     30          6           0        0.978212    0.277833   -5.455780
     31          1           0        0.162056    1.024762   -5.487354
     32          1           0        1.906755    0.865917   -5.324763
     33          6           0        1.030225   -0.489228   -6.762340
     34          1           0        1.171794    0.174071   -7.629839
     35          1           0        1.858457   -1.218249   -6.764279
     36          1           0        0.099193   -1.057540   -6.928521
 ---------------------------------------------------------------------
                    Distance matrix (angstroms):
                    1          2          3          4          5
     1  C    0.000000
     2  H    1.103379   0.000000
     3  H    1.103365   1.774207   0.000000
     4  H    1.101164   1.777430   1.777409   0.000000
     5  C    1.515977   2.173767   2.173674   2.185125   0.000000
     6  H    2.161358   3.088594   2.533159   2.516642   1.106802
     7  H    2.161330   2.533434   3.088528   2.516385   1.106887
     8  C    2.532008   2.803128   2.803235   3.497428   1.518720
     9  H    2.760720   3.122179   2.573787   3.777735   2.157028
    10  H    2.761272   2.574224   3.122961   3.778186   2.157407
    11  C    3.894304   4.219862   4.219641   4.720583   2.541826
    12  H    4.189623   4.416407   4.757796   4.884139   2.776624
    13  H    4.192070   4.759935   4.420296   4.885884   2.777983
    14  C    5.074508   5.235577   5.233547   6.018684   3.905312
    15  H    5.205919   5.430357   5.128568   6.197029   4.204174
    16  H    5.168553   5.092062   5.386379   6.162825   4.174118
    17  C    6.372502   6.587046   6.595166   7.234607   5.058226
    18  H    6.667328   6.824143   7.054579   7.455088   5.292940
    19  C    7.371752   7.673941   7.460610   8.233334   6.074967
    20  H    8.303660   8.614924   8.453704   9.117767   6.943065
    21  C    7.570384   7.939150   7.439322   8.469004   6.423660
    22  H    6.761147   7.105900   6.541168   7.703104   5.745848
    23  H    8.453002   8.741971   8.284910   9.397029   7.368689
    24  C    8.075195   8.618942   7.882245   8.864172   6.907001
    25  H    8.954136   9.496415   8.837637   9.710572   7.702225
    26  H    7.393850   8.032633   7.238469   8.099244   6.188013
    27  C    8.671705   9.246149   8.293657   9.466022   7.681234
    28  H    9.450477   9.940764   9.061175  10.303295   8.484166
    29  H    7.988201   8.553597   7.509526   8.801975   7.138950
    30  C    9.459231  10.154590   9.052140  10.140782   8.476625
    31  H    8.880717   9.657999   8.493159   9.475779   7.897935
    32  H   10.215092  10.904765   9.890655  10.883510   9.131220
    33  C   10.284620  10.981518   9.741838  10.963065   9.459231
    34  H   10.963065  11.723324  10.418216  11.568364  10.140782
    35  H   10.981518  11.607264  10.434664  11.723324  10.154589
    36  H    9.741838  10.434664   9.109330  10.418216   9.052140
                    6          7          8          9         10
     6  H    0.000000
     7  H    1.759444   0.000000
     8  C    2.151758   2.151958   0.000000
     9  H    2.516259   3.071048   1.108600   0.000000
    10  H    3.071171   2.516743   1.108680   1.761315   0.000000
    11  C    2.766178   2.766769   1.517312   2.156185   2.156383
    12  H    3.091216   2.539771   2.156690   3.074951   2.518844
    13  H    2.541027   3.090237   2.159707   2.524615   3.076923
    14  C    4.188276   4.191160   2.542545   2.770038   2.773580
    15  H    4.390254   4.736892   2.787728   2.554870   3.112847
    16  H    4.708203   4.371799   2.751175   3.066275   2.517850
    17  C    5.178453   5.168488   3.873419   4.169733   4.156587
    18  H    5.466640   5.168659   4.270825   4.801399   4.458102
    19  C    6.037398   6.297270   4.892336   4.968152   5.280501
    20  H    6.860623   7.056950   5.845628   6.005597   6.228455
    21  C    6.299186   6.877995   5.195088   4.943552   5.662688
    22  H    5.685907   6.322731   4.458141   4.051459   4.905422
    23  H    7.317783   7.827720   6.055095   5.759236   6.394601
    24  C    6.538727   7.403631   5.903110   5.588690   6.580078
    25  H    7.313240   8.091013   6.736259   6.536262   7.396462
    26  H    5.698932   6.671356   5.365503   5.106846   6.173790
    27  C    7.271972   8.333877   6.688376   6.145793   7.372411
    28  H    8.168970   9.127571   7.372411   6.818840   7.942626
    29  H    6.763606   7.898253   6.145793   5.463476   6.818840
    30  C    7.897935   9.131220   7.681234   7.138950   8.484166
    31  H    7.214236   8.544868   7.271972   6.763606   8.168970
    32  H    8.544868   9.691827   8.333877   7.898253   9.127571
    33  C    8.880717  10.215092   8.671705   7.988201   9.450477
    34  H    9.475779  10.883510   9.466022   8.801975  10.303295
    35  H    9.657999  10.904764   9.246149   8.553597   9.940764
    36  H    8.493159   9.890655   8.293657   7.509526   9.061175
                   11         12         13         14         15
    11  C    0.000000
    12  H    1.108225   0.000000
    13  H    1.107357   1.761341   0.000000
    14  C    1.523768   2.161334   2.157489   0.000000
    15  H    2.164208   3.079803   2.516523   1.106479   0.000000
    16  H    2.149265   2.516758   3.067116   1.108662   1.767706
    17  C    2.516517   2.739447   2.757349   1.492549   2.136721
    18  H    2.858292   2.628934   3.173520   2.211862   3.106816
    19  C    3.581985   3.954215   3.524142   2.515067   2.642377
    20  H    4.445223   4.627650   4.320034   3.493102   3.736683
    21  C    4.153730   4.832872   3.965240   3.068668   2.603363
    22  H    3.672767   4.528158   3.586097   2.603363   1.809646
    23  H    5.078016   5.729063   5.009753   3.818140   3.316166
    24  C    4.865826   5.554857   4.333217   4.153730   3.672767
    25  H    5.554857   6.089054   5.006487   4.832872   4.528158
    26  H    4.333217   5.006487   3.606897   3.965240   3.586097
    27  C    5.903110   6.736259   5.365503   5.195088   4.458141
    28  H    6.580078   7.396462   6.173790   5.662688   4.905422
    29  H    5.588690   6.536262   5.106846   4.943552   4.051459
    30  C    6.907000   7.702225   6.188013   6.423660   5.745848
    31  H    6.538727   7.313240   5.698932   6.299186   5.685907
    32  H    7.403631   8.091013   6.671356   6.877995   6.322731
    33  C    8.075195   8.954136   7.393850   7.570384   6.761147
    34  H    8.864172   9.710572   8.099244   8.469004   7.703104
    35  H    8.618942   9.496415   8.032632   7.939150   7.105900
    36  H    7.882245   8.837637   7.238469   7.439322   6.541168
                   16         17         18         19         20
    16  H    0.000000
    17  C    2.139149   0.000000
    18  H    2.574214   1.102231   0.000000
    19  C    3.222584   1.335387   2.096604   0.000000
    20  H    4.121694   2.096604   2.381955   1.102231   0.000000
    21  C    3.818140   2.515067   3.493102   1.492549   2.211862
    22  H    3.316166   2.642377   3.736683   2.136721   3.106816
    23  H    4.350117   3.222584   4.121694   2.139149   2.574214
    24  C    5.078016   3.581985   4.445223   2.516517   2.858292
    25  H    5.729063   3.954215   4.627650   2.739447   2.628934
    26  H    5.009753   3.524142   4.320034   2.757349   3.173520
    27  C    6.055095   4.892336   5.845627   3.873419   4.270825
    28  H    6.394601   5.280501   6.228455   4.156587   4.458102
    29  H    5.759236   4.968152   6.005597   4.169733   4.801399
    30  C    7.368689   6.074967   6.943065   5.058226   5.292940
    31  H    7.317783   6.037398   6.860623   5.178453   5.466640
    32  H    7.827720   6.297270   7.056950   5.168488   5.168659
    33  C    8.453002   7.371752   8.303660   6.372502   6.667329
    34  H    9.397028   8.233334   9.117767   7.234607   7.455088
    35  H    8.741971   7.673941   8.614923   6.587046   6.824142
    36  H    8.284910   7.460610   8.453704   6.595166   7.054579
                   21         22         23         24         25
    21  C    0.000000
    22  H    1.106479   0.000000
    23  H    1.108662   1.767706   0.000000
    24  C    1.523768   2.164208   2.149265   0.000000
    25  H    2.161334   3.079803   2.516758   1.108225   0.000000
    26  H    2.157489   2.516523   3.067116   1.107357   1.761341
    27  C    2.542545   2.787728   2.751175   1.517312   2.156690
    28  H    2.773580   3.112847   2.517850   2.156383   2.518844
    29  H    2.770038   2.554870   3.066275   2.156185   3.074951
    30  C    3.905312   4.204174   4.174118   2.541826   2.776624
    31  H    4.188276   4.390254   4.708203   2.766178   3.091216
    32  H    4.191160   4.736892   4.371799   2.766769   2.539771
    33  C    5.074508   5.205919   5.168553   3.894304   4.189623
    34  H    6.018684   6.197029   6.162825   4.720583   4.884139
    35  H    5.235577   5.430357   5.092062   4.219862   4.416406
    36  H    5.233547   5.128568   5.386379   4.219641   4.757796
                   26         27         28         29         30
    26  H    0.000000
    27  C    2.159707   0.000000
    28  H    3.076923   1.108680   0.000000
    29  H    2.524615   1.108600   1.761315   0.000000
    30  C    2.777983   1.518720   2.157407   2.157028   0.000000
    31  H    2.541027   2.151758   3.071171   2.516259   1.106802
    32  H    3.090237   2.151958   2.516743   3.071048   1.106887
    33  C    4.192070   2.532008   2.761272   2.760720   1.515977
    34  H    4.885884   3.497428   3.778186   3.777735   2.185125
    35  H    4.759935   2.803128   2.574224   3.122179   2.173766
    36  H    4.420296   2.803235   3.122961   2.573787   2.173675
                   31         32         33         34         35
    31  H    0.000000
    32  H    1.759444   0.000000
    33  C    2.161358   2.161330   0.000000
    34  H    2.516642   2.516385   1.101164   0.000000
    35  H    3.088593   2.533433   1.103378   1.777429   0.000000
    36  H    2.533159   3.088528   1.103365   1.777409   1.774207
                   36
    36  H    0.000000
 Stoichiometry    C12H24
 Framework group  CS[X(C12H24)]
 Deg. of freedom    51
 Full point group                 CS      NOp   2
 Largest Abelian subgroup         CS      NOp   2
 Largest concise Abelian subgroup CS      NOp   2
                         Standard orientation:                         
 ---------------------------------------------------------------------
 Center     Atomic      Atomic             Coordinates (Angstroms)
 Number     Number       Type             X           Y           Z
 ---------------------------------------------------------------------
      1          6           0        0.007784   -2.171202    5.142310
      2          1           0        0.749227   -1.691244    5.803632
      3          1           0        0.545421   -2.934769    4.554665
      4          1           0       -0.715956   -2.697285    5.784182
      5          6           0       -0.660145   -1.153929    4.238312
      6          1           0       -1.421735   -1.650502    3.607118
      7          1           0       -1.220171   -0.417457    4.845914
      8          6           0        0.321173   -0.416320    3.344188
      9          1           0        0.883547   -1.149556    2.731738
     10          1           0        1.085539    0.085307    3.971313
     11          6           0       -0.333270    0.605207    2.432913
     12          1           0       -0.890698    1.342340    3.044527
     13          1           0       -1.097857    0.109809    1.803448
     14          6           0        0.655479    1.337876    1.534334
     15          1           0        1.199287    0.608297    0.904823
     16          1           0        1.422885    1.817136    2.175058
     17          6           0        0.007784    2.366043    0.667694
     18          1           0       -0.532322    3.171880    1.190978
     19          6           0        0.007784    2.366043   -0.667694
     20          1           0       -0.532322    3.171880   -1.190978
     21          6           0        0.655479    1.337876   -1.534334
     22          1           0        1.199287    0.608297   -0.904823
     23          1           0        1.422885    1.817136   -2.175058
     24          6           0       -0.333270    0.605207   -2.432913
     25          1           0       -0.890698    1.342340   -3.044527
     26          1           0       -1.097857    0.109809   -1.803448
     27          6           0        0.321173   -0.416320   -3.344188
     28          1           0        1.085539    0.085307   -3.971313
     29          1           0        0.883547   -1.149556   -2.731738
     30          6           0       -0.660145   -1.153929   -4.238312
     31          1           0       -1.421735   -1.650502   -3.607118
     32          1           0       -1.220171   -0.417457   -4.845914
     33          6           0        0.007784   -2.171202   -5.142310
     34          1           0       -0.715956   -2.697285   -5.784182
     35          1           0        0.749227   -1.691244   -5.803632
     36          1           0        0.545421   -2.934769   -4.554665
 ---------------------------------------------------------------------
 Rotational constants (GHZ):      1.0891338      0.2620767      0.2200995
 Standard basis: STO-3G (5D, 7F)
 There are    42 symmetry adapted cartesian basis functions of A'  symmetry.
 There are    42 symmetry adapted cartesian basis functions of A"  symmetry.
 There are    42 symmetry adapted basis functions of A'  symmetry.
 There are    42 symmetry adapted basis functions of A"  symmetry.
    84 basis functions,   252 primitive gaussians,    84 cartesian basis functions
    48 alpha electrons       48 beta electrons
       nuclear repulsion energy       675.8588110994 Hartrees.
 NAtoms=   36 NActive=   36 NUniq=   18 SFac= 4.00D+00 NAtFMM=   60 NAOKFM=F Big=F
 Integral buffers will be    131072 words long.
 Raffenetti 1 integral format.
 Two-electron integral symmetry is turned on.
 One-electron integrals computed using PRISM.
 NBasis=    84 RedAO= T EigKep=  1.31D-01  NBF=    42    42
 NBsUse=    84 1.00D-06 EigRej= -1.00D+00 NBFU=    42    42
 ExpMin= 1.69D-01 ExpMax= 7.16D+01 ExpMxC= 7.16D+01 IAcc=1 IRadAn=         1 AccDes= 0.00D+00
 Harris functional with IExCor=  205 and IRadAn=       1 diagonalized for initial guess.
 HarFok:  IExCor=  205 AccDes= 0.00D+00 IRadAn=         1 IDoV= 1 UseB2=F ITyADJ=14
 ICtDFT=  3500011 ScaDFX=  1.000000  1.000000  1.000000  1.000000
 FoFCou: FMM=F IPFlag=           0 FMFlag=      100000 FMFlg1=           0
         NFxFlg=           0 DoJE=T BraDBF=F KetDBF=T FulRan=T
         wScrn=  0.000000 ICntrl=     500 IOpCl=  0 I1Cent=   200000004 NGrid=           0
         NMat0=    1 NMatS0=      1 NMatT0=    0 NMatD0=    1 NMtDS0=    0 NMtDT0=    0
 Petite list used in FoFCou.
 Initial guess orbital symmetries:
       Occupied  (A") (A') (A") (A') (A") (A') (A") (A') (A") (A')
                 (A") (A') (A') (A") (A') (A") (A') (A") (A') (A")
                 (A') (A') (A") (A") (A') (A") (A') (A') (A") (A')
                 (A") (A") (A') (A') (A') (A") (A") (A') (A") (A')
                 (A') (A") (A") (A') (A") (A') (A") (A')
       Virtual   (A") (A') (A") (A') (A') (A") (A") (A') (A') (A")
                 (A') (A") (A") (A') (A') (A") (A') (A") (A') (A")
                 (A') (A") (A') (A") (A') (A") (A') (A") (A') (A")
                 (A') (A") (A') (A") (A") (A")
 The electronic state of the initial guess is 1-A'.
 Keep R1 ints in memory in symmetry-blocked form, NReq=9613076.
 Requested convergence on RMS density matrix=1.00D-08 within 128 cycles.
 Requested convergence on MAX density matrix=1.00D-06.
 Requested convergence on             energy=1.00D-06.
 No special actions if energy rises.
 SCF Done:  E(RHF) =  -462.869386965     A.U. after    9 cycles
            NFock=  9  Conv=0.70D-08     -V/T= 2.0089

 **********************************************************************

            Population analysis using the SCF density.

 **********************************************************************

 Orbital symmetries:
       Occupied  (A") (A') (A") (A') (A") (A') (A") (A') (A') (A")
                 (A') (A") (A') (A") (A') (A") (A') (A") (A') (A")
                 (A') (A') (A") (A") (A') (A") (A') (A') (A") (A")
                 (A') (A') (A") (A') (A") (A') (A") (A') (A") (A')
                 (A") (A') (A") (A') (A") (A') (A") (A')
       Virtual   (A") (A') (A') (A") (A") (A') (A") (A') (A') (A")
                 (A') (A") (A') (A") (A') (A") (A') (A") (A') (A")
                 (A') (A") (A") (A') (A") (A') (A') (A") (A') (A")
                 (A') (A") (A') (A") (A") (A")
 The electronic state is 1-A'.
 Alpha  occ. eigenvalues --  -11.04049 -11.04046 -11.04039 -11.04039 -11.03857
 Alpha  occ. eigenvalues --  -11.03857 -11.03739 -11.03739 -11.03377 -11.03377
 Alpha  occ. eigenvalues --  -11.01028 -11.00950  -1.05976  -1.04495  -1.01920
 Alpha  occ. eigenvalues --   -0.98395  -0.94477  -0.89187  -0.85311  -0.79018
 Alpha  occ. eigenvalues --   -0.77555  -0.75163  -0.74941  -0.67107  -0.63188
 Alpha  occ. eigenvalues --   -0.61346  -0.59493  -0.56716  -0.55818  -0.54828
 Alpha  occ. eigenvalues --   -0.54595  -0.52674  -0.52219  -0.51211  -0.48686
 Alpha  occ. eigenvalues --   -0.47850  -0.47229  -0.46881  -0.44781  -0.44310
 Alpha  occ. eigenvalues --   -0.43119  -0.42704  -0.42020  -0.41883  -0.41200
 Alpha  occ. eigenvalues --   -0.41040  -0.39347  -0.28398
 Alpha virt. eigenvalues --    0.32161   0.54814   0.57746   0.58204   0.58983
 Alpha virt. eigenvalues --    0.60811   0.64062   0.65063   0.65949   0.66822
 Alpha virt. eigenvalues --    0.67468   0.67763   0.68464   0.69685   0.69980
 Alpha virt. eigenvalues --    0.70732   0.72258   0.72989   0.73649   0.74482
 Alpha virt. eigenvalues --    0.75044   0.76262   0.76707   0.76810   0.76828
 Alpha virt. eigenvalues --    0.77575   0.78547   0.78665   0.80368   0.80691
 Alpha virt. eigenvalues --    0.80841   0.81861   0.82303   0.83743   0.96628
 Alpha virt. eigenvalues --    1.07041
          Condensed to atoms (all electrons):
               1          2          3          4          5          6
     1  C    4.726245   0.380230   0.380225   0.381602   0.368748  -0.022186
     2  H    0.380230   0.633730  -0.021867  -0.021542  -0.021001   0.001879
     3  H    0.380225  -0.021867   0.633826  -0.021545  -0.021009  -0.002226
     4  H    0.381602  -0.021542  -0.021545   0.629112  -0.019424  -0.002125
     5  C    0.368748  -0.021001  -0.021009  -0.019424   4.725965   0.379347
     6  H   -0.022186   0.001879  -0.002226  -0.002125   0.379347   0.646285
     7  H   -0.022190  -0.002222   0.001880  -0.002128   0.379320  -0.023864
     8  C   -0.022869  -0.002135  -0.002134   0.001241   0.367975  -0.023036
     9  H   -0.002217  -0.000006   0.000394   0.000009  -0.022740  -0.002346
    10  H   -0.002209   0.000394  -0.000006   0.000009  -0.022713   0.001944
    11  C    0.000717   0.000008   0.000008  -0.000015  -0.021671  -0.002206
    12  H    0.000007   0.000002  -0.000001  -0.000000  -0.002158   0.000003
    13  H    0.000007  -0.000001   0.000002  -0.000000  -0.002163   0.000386
    14  C   -0.000005  -0.000000  -0.000000   0.000000   0.000695   0.000006
    15  H   -0.000000   0.000000  -0.000000   0.000000   0.000006   0.000002
    16  H   -0.000000  -0.000000   0.000000   0.000000   0.000009  -0.000001
    17  C    0.000000   0.000000   0.000000  -0.000000  -0.000005  -0.000000
    18  H    0.000000  -0.000000  -0.000000   0.000000   0.000000   0.000000
    19  C   -0.000000  -0.000000  -0.000000   0.000000   0.000000  -0.000000
    20  H    0.000000   0.000000   0.000000  -0.000000  -0.000000  -0.000000
    21  C   -0.000000  -0.000000   0.000000   0.000000   0.000000  -0.000000
    22  H    0.000000   0.000000   0.000000  -0.000000  -0.000000  -0.000000
    23  H    0.000000   0.000000   0.000000  -0.000000  -0.000000  -0.000000
    24  C   -0.000000  -0.000000  -0.000000   0.000000   0.000000   0.000000
    25  H   -0.000000  -0.000000   0.000000  -0.000000  -0.000000  -0.000000
    26  H    0.000000   0.000000   0.000000  -0.000000  -0.000000  -0.000000
    27  C    0.000000   0.000000   0.000000  -0.000000  -0.000000  -0.000000
    28  H    0.000000   0.000000   0.000000  -0.000000  -0.000000  -0.000000
    29  H    0.000000  -0.000000   0.000000  -0.000000  -0.000000  -0.000000
    30  C   -0.000000  -0.000000  -0.000000   0.000000   0.000000   0.000000
    31  H   -0.000000  -0.000000  -0.000000   0.000000   0.000000   0.000000
    32  H   -0.000000  -0.000000  -0.000000   0.000000   0.000000   0.000000
    33  C    0.000000   0.000000   0.000000  -0.000000  -0.000000  -0.000000
    34  H   -0.000000  -0.000000  -0.000000   0.000000   0.000000   0.000000
    35  H    0.000000  -0.000000   0.000000  -0.000000  -0.000000  -0.000000
    36  H    0.000000   0.000000  -0.000000  -0.000000  -0.000000  -0.000000
               7          8          9         10         11         12
     1  C   -0.022190  -0.022869  -0.002217  -0.002209   0.000717   0.000007
     2  H   -0.002222  -0.002135  -0.000006   0.000394   0.000008   0.000002
     3  H    0.001880  -0.002134   0.000394  -0.000006   0.000008  -0.000001
     4  H   -0.002128   0.001241   0.000009   0.000009  -0.000015  -0.000000
     5  C    0.379320   0.367975  -0.022740  -0.022713  -0.021671  -0.002158
     6  H   -0.023864  -0.023036  -0.002346   0.001944  -0.002206   0.000003
     7  H    0.646344  -0.023033   0.001946  -0.002345  -0.002197   0.000392
     8  C   -0.023033   4.739268   0.378356   0.378426   0.368816  -0.022752
     9  H    0.001946   0.378356   0.650303  -0.023885  -0.022796   0.001934
    10  H   -0.002345   0.378426  -0.023885   0.649828  -0.022763  -0.002341
    11  C   -0.002197   0.368816  -0.022796  -0.022763   4.739732   0.378639
    12  H    0.000392  -0.022752   0.001934  -0.002341   0.378639   0.648338
    13  H    0.000004  -0.022565  -0.002278   0.001923   0.378770  -0.023849
    14  C    0.000007  -0.021782  -0.002201  -0.002214   0.363303  -0.022424
    15  H   -0.000001  -0.002029   0.000375  -0.000002  -0.021946   0.001880
    16  H    0.000002  -0.002424  -0.000001   0.000436  -0.023319  -0.002261
    17  C   -0.000000   0.000740   0.000008   0.000007  -0.023281  -0.002365
    18  H   -0.000000  -0.000001  -0.000001   0.000001  -0.001441   0.000375
    19  C    0.000000  -0.000003   0.000000  -0.000000   0.000154   0.000011
    20  H   -0.000000   0.000000   0.000000   0.000000  -0.000017  -0.000002
    21  C    0.000000  -0.000000  -0.000000  -0.000000   0.000062  -0.000002
    22  H   -0.000000   0.000003  -0.000001   0.000000  -0.000000  -0.000002
    23  H   -0.000000   0.000000   0.000000   0.000000  -0.000003   0.000000
    24  C    0.000000  -0.000000   0.000000  -0.000000   0.000003   0.000000
    25  H    0.000000   0.000000  -0.000000  -0.000000   0.000000  -0.000000
    26  H   -0.000000   0.000000   0.000000   0.000000  -0.000004   0.000000
    27  C   -0.000000   0.000000   0.000000   0.000000  -0.000000   0.000000
    28  H   -0.000000   0.000000   0.000000  -0.000000  -0.000000  -0.000000
    29  H    0.000000   0.000000  -0.000000   0.000000   0.000000  -0.000000
    30  C    0.000000  -0.000000  -0.000000  -0.000000   0.000000  -0.000000
    31  H    0.000000  -0.000000  -0.000000  -0.000000   0.000000  -0.000000
    32  H    0.000000  -0.000000   0.000000  -0.000000   0.000000   0.000000
    33  C   -0.000000   0.000000   0.000000   0.000000  -0.000000  -0.000000
    34  H    0.000000  -0.000000  -0.000000  -0.000000   0.000000  -0.000000
    35  H   -0.000000   0.000000  -0.000000   0.000000  -0.000000  -0.000000
    36  H   -0.000000   0.000000   0.000000   0.000000  -0.000000   0.000000
              13         14         15         16         17         18
     1  C    0.000007  -0.000005  -0.000000  -0.000000   0.000000   0.000000
     2  H   -0.000001  -0.000000   0.000000  -0.000000   0.000000  -0.000000
     3  H    0.000002  -0.000000  -0.000000   0.000000   0.000000  -0.000000
     4  H   -0.000000   0.000000   0.000000   0.000000  -0.000000   0.000000
     5  C   -0.002163   0.000695   0.000006   0.000009  -0.000005   0.000000
     6  H    0.000386   0.000006   0.000002  -0.000001  -0.000000   0.000000
     7  H    0.000004   0.000007  -0.000001   0.000002  -0.000000  -0.000000
     8  C   -0.022565  -0.021782  -0.002029  -0.002424   0.000740  -0.000001
     9  H   -0.002278  -0.002201   0.000375  -0.000001   0.000008  -0.000001
    10  H    0.001923  -0.002214  -0.000002   0.000436   0.000007   0.000001
    11  C    0.378770   0.363303  -0.021946  -0.023319  -0.023281  -0.001441
    12  H   -0.023849  -0.022424   0.001880  -0.002261  -0.002365   0.000375
    13  H    0.647414  -0.022812  -0.002408   0.001958  -0.001870   0.000010
    14  C   -0.022812   4.725559   0.380653   0.376351   0.384719  -0.025320
    15  H   -0.002408   0.380653   0.640958  -0.022896  -0.022185   0.001685
    16  H    0.001958   0.376351  -0.022896   0.644450  -0.023443  -0.001558
    17  C   -0.001870   0.384719  -0.022185  -0.023443   4.818407   0.388403
    18  H    0.000010  -0.025320   0.001685  -0.001558   0.388403   0.622238
    19  C    0.000102  -0.025468  -0.004317   0.000501   0.598298  -0.028611
    20  H   -0.000005   0.001311   0.000017  -0.000032  -0.028611  -0.005577
    21  C    0.000022  -0.005426  -0.003079   0.000102  -0.025468   0.001311
    22  H    0.000007  -0.003079  -0.001252  -0.000001  -0.004317   0.000017
    23  H    0.000000   0.000102  -0.000001   0.000014   0.000501  -0.000032
    24  C   -0.000004   0.000062  -0.000000  -0.000003   0.000154  -0.000017
    25  H    0.000000  -0.000002  -0.000002   0.000000   0.000011  -0.000002
    26  H    0.000002   0.000022   0.000007   0.000000   0.000102  -0.000005
    27  C    0.000000  -0.000000   0.000003   0.000000  -0.000003   0.000000
    28  H    0.000000  -0.000000   0.000000   0.000000  -0.000000   0.000000
    29  H    0.000000  -0.000000  -0.000001   0.000000   0.000000   0.000000
    30  C   -0.000000   0.000000  -0.000000  -0.000000   0.000000  -0.000000
    31  H   -0.000000  -0.000000  -0.000000  -0.000000  -0.000000  -0.000000
    32  H   -0.000000   0.000000  -0.000000  -0.000000   0.000000  -0.000000
    33  C    0.000000  -0.000000   0.000000   0.000000  -0.000000   0.000000
    34  H   -0.000000   0.000000  -0.000000  -0.000000   0.000000  -0.000000
    35  H    0.000000  -0.000000   0.000000   0.000000  -0.000000   0.000000
    36  H    0.000000   0.000000   0.000000   0.000000  -0.000000   0.000000
              19         20         21         22         23         24
     1  C   -0.000000   0.000000  -0.000000   0.000000   0.000000  -0.000000
     2  H   -0.000000   0.000000  -0.000000   0.000000   0.000000  -0.000000
     3  H   -0.000000   0.000000   0.000000   0.000000   0.000000  -0.000000
     4  H    0.000000  -0.000000   0.000000  -0.000000  -0.000000   0.000000
     5  C    0.000000  -0.000000   0.000000  -0.000000  -0.000000   0.000000
     6  H   -0.000000  -0.000000  -0.000000  -0.000000  -0.000000   0.000000
     7  H    0.000000  -0.000000   0.000000  -0.000000  -0.000000   0.000000
     8  C   -0.000003   0.000000  -0.000000   0.000003   0.000000  -0.000000
     9  H    0.000000   0.000000  -0.000000  -0.000001   0.000000   0.000000
    10  H   -0.000000   0.000000  -0.000000   0.000000   0.000000  -0.000000
    11  C    0.000154  -0.000017   0.000062  -0.000000  -0.000003   0.000003
    12  H    0.000011  -0.000002  -0.000002  -0.000002   0.000000   0.000000
    13  H    0.000102  -0.000005   0.000022   0.000007   0.000000  -0.000004
    14  C   -0.025468   0.001311  -0.005426  -0.003079   0.000102   0.000062
    15  H   -0.004317   0.000017  -0.003079  -0.001252  -0.000001  -0.000000
    16  H    0.000501  -0.000032   0.000102  -0.000001   0.000014  -0.000003
    17  C    0.598298  -0.028611  -0.025468  -0.004317   0.000501   0.000154
    18  H   -0.028611  -0.005577   0.001311   0.000017  -0.000032  -0.000017
    19  C    4.818407   0.388403   0.384719  -0.022185  -0.023443  -0.023281
    20  H    0.388403   0.622238  -0.025320   0.001685  -0.001558  -0.001441
    21  C    0.384719  -0.025320   4.725559   0.380653   0.376351   0.363303
    22  H   -0.022185   0.001685   0.380653   0.640958  -0.022896  -0.021946
    23  H   -0.023443  -0.001558   0.376351  -0.022896   0.644450  -0.023319
    24  C   -0.023281  -0.001441   0.363303  -0.021946  -0.023319   4.739732
    25  H   -0.002365   0.000375  -0.022424   0.001880  -0.002261   0.378639
    26  H   -0.001870   0.000010  -0.022812  -0.002408   0.001958   0.378770
    27  C    0.000740  -0.000001  -0.021782  -0.002029  -0.002424   0.368816
    28  H    0.000007   0.000001  -0.002214  -0.000002   0.000436  -0.022763
    29  H    0.000008  -0.000001  -0.002201   0.000375  -0.000001  -0.022796
    30  C   -0.000005   0.000000   0.000695   0.000006   0.000009  -0.021671
    31  H   -0.000000   0.000000   0.000006   0.000002  -0.000001  -0.002206
    32  H   -0.000000  -0.000000   0.000007  -0.000001   0.000002  -0.002197
    33  C    0.000000   0.000000  -0.000005  -0.000000  -0.000000   0.000717
    34  H   -0.000000   0.000000   0.000000   0.000000   0.000000  -0.000015
    35  H    0.000000  -0.000000  -0.000000   0.000000  -0.000000   0.000008
    36  H    0.000000  -0.000000  -0.000000  -0.000000   0.000000   0.000008
              25         26         27         28         29         30
     1  C   -0.000000   0.000000   0.000000   0.000000   0.000000  -0.000000
     2  H   -0.000000   0.000000   0.000000   0.000000  -0.000000  -0.000000
     3  H    0.000000   0.000000   0.000000   0.000000   0.000000  -0.000000
     4  H   -0.000000  -0.000000  -0.000000  -0.000000  -0.000000   0.000000
     5  C   -0.000000  -0.000000  -0.000000  -0.000000  -0.000000   0.000000
     6  H   -0.000000  -0.000000  -0.000000  -0.000000  -0.000000   0.000000
     7  H    0.000000  -0.000000  -0.000000  -0.000000   0.000000   0.000000
     8  C    0.000000   0.000000   0.000000   0.000000   0.000000  -0.000000
     9  H   -0.000000   0.000000   0.000000   0.000000  -0.000000  -0.000000
    10  H   -0.000000   0.000000   0.000000  -0.000000   0.000000  -0.000000
    11  C    0.000000  -0.000004  -0.000000  -0.000000   0.000000   0.000000
    12  H   -0.000000   0.000000   0.000000  -0.000000  -0.000000  -0.000000
    13  H    0.000000   0.000002   0.000000   0.000000   0.000000  -0.000000
    14  C   -0.000002   0.000022  -0.000000  -0.000000  -0.000000   0.000000
    15  H   -0.000002   0.000007   0.000003   0.000000  -0.000001  -0.000000
    16  H    0.000000   0.000000   0.000000   0.000000   0.000000  -0.000000
    17  C    0.000011   0.000102  -0.000003  -0.000000   0.000000   0.000000
    18  H   -0.000002  -0.000005   0.000000   0.000000   0.000000  -0.000000
    19  C   -0.002365  -0.001870   0.000740   0.000007   0.000008  -0.000005
    20  H    0.000375   0.000010  -0.000001   0.000001  -0.000001   0.000000
    21  C   -0.022424  -0.022812  -0.021782  -0.002214  -0.002201   0.000695
    22  H    0.001880  -0.002408  -0.002029  -0.000002   0.000375   0.000006
    23  H   -0.002261   0.001958  -0.002424   0.000436  -0.000001   0.000009
    24  C    0.378639   0.378770   0.368816  -0.022763  -0.022796  -0.021671
    25  H    0.648338  -0.023849  -0.022752  -0.002341   0.001934  -0.002158
    26  H   -0.023849   0.647414  -0.022565   0.001923  -0.002278  -0.002163
    27  C   -0.022752  -0.022565   4.739268   0.378426   0.378356   0.367975
    28  H   -0.002341   0.001923   0.378426   0.649828  -0.023885  -0.022713
    29  H    0.001934  -0.002278   0.378356  -0.023885   0.650303  -0.022740
    30  C   -0.002158  -0.002163   0.367975  -0.022713  -0.022740   4.725965
    31  H    0.000003   0.000386  -0.023036   0.001944  -0.002346   0.379347
    32  H    0.000392   0.000004  -0.023033  -0.002345   0.001946   0.379320
    33  C    0.000007   0.000007  -0.022869  -0.002209  -0.002217   0.368748
    34  H   -0.000000  -0.000000   0.001241   0.000009   0.000009  -0.019424
    35  H    0.000002  -0.000001  -0.002135   0.000394  -0.000006  -0.021001
    36  H   -0.000001   0.000002  -0.002134  -0.000006   0.000394  -0.021009
              31         32         33         34         35         36
     1  C   -0.000000  -0.000000   0.000000  -0.000000   0.000000   0.000000
     2  H   -0.000000  -0.000000   0.000000  -0.000000  -0.000000   0.000000
     3  H   -0.000000  -0.000000   0.000000  -0.000000   0.000000  -0.000000
     4  H    0.000000   0.000000  -0.000000   0.000000  -0.000000  -0.000000
     5  C    0.000000   0.000000  -0.000000   0.000000  -0.000000  -0.000000
     6  H    0.000000   0.000000  -0.000000   0.000000  -0.000000  -0.000000
     7  H    0.000000   0.000000  -0.000000   0.000000  -0.000000  -0.000000
     8  C   -0.000000  -0.000000   0.000000  -0.000000   0.000000   0.000000
     9  H   -0.000000   0.000000   0.000000  -0.000000  -0.000000   0.000000
    10  H   -0.000000  -0.000000   0.000000  -0.000000   0.000000   0.000000
    11  C    0.000000   0.000000  -0.000000   0.000000  -0.000000  -0.000000
    12  H   -0.000000   0.000000  -0.000000  -0.000000  -0.000000   0.000000
    13  H   -0.000000  -0.000000   0.000000  -0.000000   0.000000   0.000000
    14  C   -0.000000   0.000000  -0.000000   0.000000  -0.000000   0.000000
    15  H   -0.000000  -0.000000   0.000000  -0.000000   0.000000   0.000000
    16  H   -0.000000  -0.000000   0.000000  -0.000000   0.000000   0.000000
    17  C   -0.000000   0.000000  -0.000000   0.000000  -0.000000  -0.000000
    18  H   -0.000000  -0.000000   0.000000  -0.000000   0.000000   0.000000
    19  C   -0.000000  -0.000000   0.000000  -0.000000   0.000000   0.000000
    20  H    0.000000  -0.000000   0.000000   0.000000  -0.000000  -0.000000
    21  C    0.000006   0.000007  -0.000005   0.000000  -0.000000  -0.000000
    22  H    0.000002  -0.000001  -0.000000   0.000000   0.000000  -0.000000
    23  H   -0.000001   0.000002  -0.000000   0.000000  -0.000000   0.000000
    24  C   -0.002206  -0.002197   0.000717  -0.000015   0.000008   0.000008
    25  H    0.000003   0.000392   0.000007  -0.000000   0.000002  -0.000001
    26  H    0.000386   0.000004   0.000007  -0.000000  -0.000001   0.000002
    27  C   -0.023036  -0.023033  -0.022869   0.001241  -0.002135  -0.002134
    28  H    0.001944  -0.002345  -0.002209   0.000009   0.000394  -0.000006
    29  H   -0.002346   0.001946  -0.002217   0.000009  -0.000006   0.000394
    30  C    0.379347   0.379320   0.368748  -0.019424  -0.021001  -0.021009
    31  H    0.646285  -0.023864  -0.022186  -0.002125   0.001879  -0.002226
    32  H   -0.023864   0.646344  -0.022190  -0.002128  -0.002222   0.001880
    33  C   -0.022186  -0.022190   4.726245   0.381602   0.380230   0.380225
    34  H   -0.002125  -0.002128   0.381602   0.629112  -0.021542  -0.021545
    35  H    0.001879  -0.002222   0.380230  -0.021542   0.633730  -0.021867
    36  H   -0.002226   0.001880   0.380225  -0.021545  -0.021867   0.633826
 Mulliken charges:
               1
     1  C   -0.166105
     2  H    0.052532
     3  H    0.052453
     4  H    0.054805
     5  C   -0.089182
     6  H    0.048136
     7  H    0.048088
     8  C   -0.090063
     9  H    0.045144
    10  H    0.045508
    11  C   -0.088553
    12  H    0.046576
    13  H    0.047349
    14  C   -0.102057
    15  H    0.054531
    16  H    0.052115
    17  C   -0.059802
    18  H    0.048526
    19  C   -0.059802
    20  H    0.048526
    21  C   -0.102057
    22  H    0.054531
    23  H    0.052115
    24  C   -0.088553
    25  H    0.046576
    26  H    0.047349
    27  C   -0.090063
    28  H    0.045508
    29  H    0.045144
    30  C   -0.089182
    31  H    0.048136
    32  H    0.048088
    33  C   -0.166105
    34  H    0.054805
    35  H    0.052532
    36  H    0.052453
 Sum of Mulliken charges =  -0.00000
 Mulliken charges with hydrogens summed into heavy atoms:
               1
     1  C   -0.006315
     5  C    0.007041
     8  C    0.000589
    11  C    0.005371
    14  C    0.004590
    17  C   -0.011276
    19  C   -0.011276
    21  C    0.004590
    24  C    0.005371
    27  C    0.000589
    30  C    0.007041
    33  C   -0.006315
 Electronic spatial extent (au):  <R**2>=           5128.6431
 Charge=             -0.0000 electrons
 Dipole moment (field-independent basis, Debye):
    X=              0.0182    Y=             -0.1542    Z=              0.0000  Tot=              0.1553
 Quadrupole moment (field-independent basis, Debye-Ang):
   XX=            -76.0284   YY=            -76.4531   ZZ=            -75.1835
   XY=             -0.3826   XZ=             -0.0000   YZ=             -0.0000
 Traceless Quadrupole moment (field-independent basis, Debye-Ang):
   XX=             -0.1401   YY=             -0.5648   ZZ=              0.7049
   XY=             -0.3826   XZ=             -0.0000   YZ=             -0.0000
 Octapole moment (field-independent basis, Debye-Ang**2):
  XXX=              0.1298  YYY=             -0.2297  ZZZ=              0.0000  XYY=             -3.0746
  XXY=             -0.7511  XXZ=              0.0000  XZZ=             -0.3086  YZZ=              9.1889
  YYZ=              0.0000  XYZ=              0.0000
 Hexadecapole moment (field-independent basis, Debye-Ang**3):
 XXXX=           -242.4314 YYYY=          -1221.4937 ZZZZ=          -5311.3537 XXXY=            -41.4636
 XXXZ=              0.0000 YYYX=            -54.1178 YYYZ=              0.0000 ZZZX=             -0.0000
 ZZZY=              0.0000 XXYY=           -241.4590 XXZZ=           -916.0919 YYZZ=          -1092.6363
 XXYZ=              0.0000 YYXZ=             -0.0000 ZZXY=             -4.2400
 N-N= 6.758588110994D+02 E-N=-2.427125760970D+03  KE= 4.587728947819D+02
 Symmetry A'   KE= 2.317052135476D+02
 Symmetry A"   KE= 2.270676812343D+02
 1\1\GINC-CN0630\SP\RHF\STO-3G\C12H24\GRAHA682\04-Dec-2017\0\\# hf/sto-
 3g geom=connectivity\\Title Card Required\\0,1\C,0,-6.854443,-0.134877
 ,-0.168414\H,0,-7.040212,-0.818328,0.677653\H,0,-6.884443,-0.743683,-1
 .088126\H,0,-7.697052,0.572652,-0.212848\C,0,-5.520363,0.56989,-0.0210
 4\H,0,-5.368713,1.273324,-0.861988\H,0,-5.523451,1.199843,0.889097\C,0
 ,-4.344023,-0.388597,0.042497\H,0,-4.335099,-1.020835,-0.868101\H,0,-4
 .48926,-1.094591,0.884904\C,0,-3.001393,0.302765,0.189464\H,0,-3.00708
 7,0.930311,1.102873\H,0,-2.850369,1.009328,-0.649702\C,0,-1.824677,-0.
 663624,0.246928\H,0,-1.800656,-1.277687,-0.673205\H,0,-1.994641,-1.373
 719,1.081199\C,0,-0.511885,0.023005,0.428088\H,0,-0.405457,0.634962,1.
 338635\C,0,0.511885,-0.023005,-0.428088\H,0,1.42066071,0.55289309,-0.1
 8854215\C,0,0.52790644,-0.76935319,-1.72053098\H,0,-0.41329712,-1.3400
 3732,-1.83344936\H,0,1.34036085,-1.52359977,-1.70785374\C,0,0.72897512
 ,0.1351158,-2.93023246\H,0,1.6610646,0.72051616,-2.80108917\H,0,-0.085
 15414,0.88505443,-2.9622435\C,0,0.78359672,-0.61904112,-4.24571708\H,0
 ,1.59992654,-1.36824961,-4.20746573\H,0,-0.1465441,-1.20907592,-4.3709
 7781\C,0,0.97821181,0.27783277,-5.45577999\H,0,0.1620556,1.02476163,-5
 .48735439\H,0,1.90675451,0.86591667,-5.32476321\C,0,1.03022467,-0.4892
 2765,-6.76233964\H,0,1.17179373,0.17407067,-7.62983899\H,0,1.85845658,
 -1.2182486,-6.76427875\H,0,0.09919305,-1.05753973,-6.92852136\\Version
 =ES64L-G09RevE.01\State=1-A'\HF=-462.869387\RMSD=7.031e-09\Dipole=-0.0
 388108,-0.0112932,-0.045801\Quadrupole=0.1285224,-0.0659085,-0.0626139
 ,0.1511467,-0.481089,0.2124377\PG=CS [X(C12H24)]\\@


 DON'T WORRY CHARLIE BROWN...WE LEARN MORE FROM LOSING  THAN WE DO FROM WINNING.
 THEN THAT MAKES ME THE SMARTEST PERSON IN THE WORLD...
 CHARLES SCHULZ 'PEANUTS'
 Job cpu time:       0 days  0 hours  1 minutes  4.2 seconds.
 File lengths (MBytes):  RWF=      5 Int=      0 D2E=      0 Chk=      2 Scr=      1
 Normal termination of Gaussian 09 at Mon Dec  4 11:09:11 2017.
63.46user 0.73system 0:03.35elapsed 1913%CPU (0avgtext+0avgdata 434704maxresident)k
191664inputs+15584outputs (167major+22242minor)pagefaults 0swaps
