 Entering Gaussian System, Link 0=g09
 Initial command:
 /soft/gaussian/g09.d01_itasca/g09/l1.exe "/scratch/jgoodpas/2034005.node1081.localdomain/Gau-17119.inp" -scrdir="/scratch/jgoodpas/2034005.node1081.localdomain/"
 Entering Link 1 = /soft/gaussian/g09.d01_itasca/g09/l1.exe PID=     17120.
  
 Copyright (c) 1988,1990,1992,1993,1995,1998,2003,2009,2013,
            Gaussian, Inc.  All Rights Reserved.
  
 This is part of the Gaussian(R) 09 program.  It is based on
 the Gaussian(R) 03 system (copyright 2003, Gaussian, Inc.),
 the Gaussian(R) 98 system (copyright 1998, Gaussian, Inc.),
 the Gaussian(R) 94 system (copyright 1995, Gaussian, Inc.),
 the Gaussian 92(TM) system (copyright 1992, Gaussian, Inc.),
 the Gaussian 90(TM) system (copyright 1990, Gaussian, Inc.),
 the Gaussian 88(TM) system (copyright 1988, Gaussian, Inc.),
 the Gaussian 86(TM) system (copyright 1986, Carnegie Mellon
 University), and the Gaussian 82(TM) system (copyright 1983,
 Carnegie Mellon University). Gaussian is a federally registered
 trademark of Gaussian, Inc.
  
 This software contains proprietary and confidential information,
 including trade secrets, belonging to Gaussian, Inc.
  
 This software is provided under written license and may be
 used, copied, transmitted, or stored only in accord with that
 written license.
  
 The following legend is applicable only to US Government
 contracts under FAR:
  
                    RESTRICTED RIGHTS LEGEND
  
 Use, reproduction and disclosure by the US Government is
 subject to restrictions as set forth in subparagraphs (a)
 and (c) of the Commercial Computer Software - Restricted
 Rights clause in FAR 52.227-19.
  
 Gaussian, Inc.
 340 Quinnipiac St., Bldg. 40, Wallingford CT 06492
  
  
 ---------------------------------------------------------------
 Warning -- This program may not be used in any manner that
 competes with the business of Gaussian, Inc. or will provide
 assistance to any competitor of Gaussian, Inc.  The licensee
 of this program is prohibited from giving any competitor of
 Gaussian, Inc. access to this program.  By using this program,
 the user acknowledges that Gaussian, Inc. is engaged in the
 business of creating and licensing software in the field of
 computational chemistry and represents and warrants to the
 licensee that it is not a competitor of Gaussian, Inc. and that
 it will not use this program in any manner prohibited above.
 ---------------------------------------------------------------
  

 Cite this work as:
 Gaussian 09, Revision D.01,
 M. J. Frisch, G. W. Trucks, H. B. Schlegel, G. E. Scuseria, 
 M. A. Robb, J. R. Cheeseman, G. Scalmani, V. Barone, B. Mennucci, 
 G. A. Petersson, H. Nakatsuji, M. Caricato, X. Li, H. P. Hratchian, 
 A. F. Izmaylov, J. Bloino, G. Zheng, J. L. Sonnenberg, M. Hada, 
 M. Ehara, K. Toyota, R. Fukuda, J. Hasegawa, M. Ishida, T. Nakajima, 
 Y. Honda, O. Kitao, H. Nakai, T. Vreven, J. A. Montgomery, Jr., 
 J. E. Peralta, F. Ogliaro, M. Bearpark, J. J. Heyd, E. Brothers, 
 K. N. Kudin, V. N. Staroverov, T. Keith, R. Kobayashi, J. Normand, 
 K. Raghavachari, A. Rendell, J. C. Burant, S. S. Iyengar, J. Tomasi, 
 M. Cossi, N. Rega, J. M. Millam, M. Klene, J. E. Knox, J. B. Cross, 
 V. Bakken, C. Adamo, J. Jaramillo, R. Gomperts, R. E. Stratmann, 
 O. Yazyev, A. J. Austin, R. Cammi, C. Pomelli, J. W. Ochterski, 
 R. L. Martin, K. Morokuma, V. G. Zakrzewski, G. A. Voth, 
 P. Salvador, J. J. Dannenberg, S. Dapprich, A. D. Daniels, 
 O. Farkas, J. B. Foresman, J. V. Ortiz, J. Cioslowski, 
 and D. J. Fox, Gaussian, Inc., Wallingford CT, 2013.
 
 ******************************************
 Gaussian 09:  ES64L-G09RevD.01 24-Apr-2013
                17-Oct-2017 
 ******************************************
 %LindaWorkers=ic-node0233
 %Mem=11800mb
 %NProcShared=8
 Will use up to    8 processors via shared memory.
 %chk=dimer.chk
 SetLPE:  input flags=" -workerwait 250000 -opt "Tsnet.Node.lindarsharg: ssh " "
 SetLPE:    new flags=" -workerwait 250000 -opt "Tsnet.Node.lindarsharg: ssh "  -nodelist 'ic-node0233'"
 Will use up to    1 processors via Linda.
 -------------------------------------------------------------
 # Opt=(Z-mat,maxcycle=200) m06/def2svp Integral=SuperFineGrid
 -------------------------------------------------------------
 1/6=200,10=7,14=-1,18=40,26=5,38=1/1,3;
 2/12=2,17=6,18=5,29=3,40=1/2;
 3/5=43,7=101,11=2,16=1,25=1,30=1,71=1,74=-54,75=-7/1,2,3;
 4//1;
 5/5=2,38=5/2;
 6/7=2,8=2,9=2,10=2,28=1/1;
 7/29=1/1,2,3,16;
 1/6=200,10=7,14=-1,18=40,26=5/3(2);
 2/29=3/2;
 99//99;
 2/29=3/2;
 3/5=43,7=101,11=2,16=1,25=1,30=1,71=1,74=-54,75=-7/1,2,3;
 4/5=5,16=3,69=1/1;
 5/5=2,38=5/2;
 7//1,2,3,16;
 1/6=200,14=-1,18=40,26=5/3(-5);
 2/29=3/2;
 6/7=2,8=2,9=2,10=2,19=2,28=1/1;
 99/9=1/99;
 ------
 C12H24
 ------
 Symbolic Z-matrix:
 Charge =  0 Multiplicity = 1
 C
 C                    1    B1
 H                    1    B2       2    A2
 H                    1    B3       2    A3       3    D3       0
 H                    1    B4       2    A4       3    D4       0
 C                    2    B5       1    A5       3    D5       0
 H                    2    B6       1    A6       3    D6       0
 H                    2    B7       1    A7       3    D7       0
 C                    6    B8       2    A8       1    D8       0
 H                    6    B9       2    A9       1    D9       0
 H                    6    B10      2    A10      1    D10      0
 C                    9    B11      6    A11      2    D11      0
 H                    9    B12      6    A12      2    D12      0
 H                    9    B13      6    A13      2    D13      0
 C                    12   B14      9    A14      6    D14      0
 H                    12   B15      9    A15      6    D15      0
 H                    12   B16      9    A16      6    D16      0
 C                    15   B17      12   A17      9    D17      0
 H                    15   B18      12   A18      9    D18      0
 H                    15   B19      12   A19      9    D19      0
 C                    18   B20      15   A20      12   D20      0
 H                    18   B21      15   A21      12   D21      0
 H                    18   B22      15   A22      12   D22      0
 C                    21   B23      18   A23      15   D23      0
 H                    21   B24      18   A24      15   D24      0
 H                    21   B25      18   A25      15   D25      0
 C                    24   B26      21   A26      18   D26      0
 H                    24   B27      21   A27      18   D27      0
 H                    24   B28      21   A28      18   D28      0
 C                    27   B29      24   A29      21   D29      0
 H                    27   B30      24   A30      21   D30      0
 H                    27   B31      24   A31      21   D31      0
 C                    30   B32      27   A32      24   D32      0
 H                    33   B33      30   A33      27   D33      0
 H                    33   B34      30   A34      27   D34      0
 H                    30   B35      27   A35      24   D35      0
       Variables:
  B1                    1.52037                  
  B2                    1.09449                  
  A2                  110.2615                   
  B3                    1.09469                  
  A3                  110.99941                  
  D3                  240.2622                   
  B4                    1.09468                  
  A4                  111.00291                  
  D4                  119.74267                  
  B5                    1.52846                  
  A5                  111.49348                  
  D5                  180.02355                  
  B6                    1.09622                  
  A6                  109.14402                  
  D6                   58.466                    
  B7                    1.09622                  
  A7                  109.14651                  
  D7                  301.57536                  
  B8                    1.52957                  
  A8                  111.33085                  
  D8                  180.06732                  
  B9                    1.09685                  
  A9                  109.56808                  
  D9                   58.69294                  
  B10                   1.09685                  
  A10                 109.56982                  
  D10                 301.43153                  
  B11                   1.52959                  
  A11                 111.32932                  
  D11                 180.0495                   
  B12                   1.09682                  
  A12                 109.56214                  
  D12                  58.69169                  
  B13                   1.09682                  
  A13                 109.57144                  
  D13                 301.40424                  
  B14                   1.52958                  
  A14                 111.33412                  
  D14                 180.11548                  
  B15                   1.09681                  
  A15                 109.56324                  
  D15                  58.75236                  
  B16                   1.09681                  
  A16                 109.56894                  
  D16                 301.4668                   
  B17                   1.52958                  
  A17                 111.32441                  
  D17                 180.06818                  
  B18                   1.09681                  
  A18                 109.56207                  
  D18                  58.71257                  
  B19                   1.09681                  
  A19                 109.57415                  
  D19                 301.42268                  
  B20                   1.5296                   
  A20                 111.33392                  
  D20                 180.12584                  
  B21                   1.09681                  
  A21                 109.56096                  
  D21                  58.76319                  
  B22                   1.09681                  
  A22                 109.57002                  
  D22                 301.47796                  
  B23                   1.53006                  
  A23                 111.33208                  
  D23                 180.06793                  
  B24                   1.09681                  
  A24                 109.55355                  
  D24                  58.71484                  
  B25                   1.09681                  
  A25                 109.57481                  
  D25                 301.41764                  
  B26                   1.52997                  
  A26                 111.27387                  
  D26                 180.07455                  
  B27                   1.09745                  
  A27                 109.45602                  
  D27                  58.51678                  
  B28                   1.09744                  
  A28                 109.4982                   
  D28                 301.54273                  
  B29                   1.50175                  
  A29                 111.29171                  
  D29                 180.59371                  
  B30                   1.0969                   
  A30                 109.65896                  
  D30                  57.82495                  
  B31                   1.09657                  
  A31                 109.82846                  
  D31                 300.6713                   
  B32                   1.33889                  
  A32                 124.10415                  
  D32                 241.95558                  
  B33                   1.08555                  
  A33                 121.75919                  
  B34                   1.08571                  
  A34                 120.7488                   
  B35                   1.08828                  
  A35                 116.90896                  
  D35                  62.58421                  
       Constants:
  D33                  91.                       
  D34                 271.                       
 

 GradGradGradGradGradGradGradGradGradGradGradGradGradGradGradGradGradGrad
 Berny optimization.
 Initialization pass.
                       ----------------------------
                       !    Initial Parameters    !
                       ! (Angstroms and Degrees)  !
 ----------------------                            ----------------------
 !      Name          Value   Derivative information (Atomic Units)     !
 ------------------------------------------------------------------------
 !       B1          1.5204   estimate D2E/DX2                          !
 !       B2          1.0945   estimate D2E/DX2                          !
 !       A2        110.2615   estimate D2E/DX2                          !
 !       B3          1.0947   estimate D2E/DX2                          !
 !       A3        110.9994   estimate D2E/DX2                          !
 !       D3        240.2622   estimate D2E/DX2                          !
 !       B4          1.0947   estimate D2E/DX2                          !
 !       A4        111.0029   estimate D2E/DX2                          !
 !       D4        119.7427   estimate D2E/DX2                          !
 !       B5          1.5285   estimate D2E/DX2                          !
 !       A5        111.4935   estimate D2E/DX2                          !
 !       D5        180.0236   estimate D2E/DX2                          !
 !       B6          1.0962   estimate D2E/DX2                          !
 !       A6        109.144    estimate D2E/DX2                          !
 !       D6         58.466    estimate D2E/DX2                          !
 !       B7          1.0962   estimate D2E/DX2                          !
 !       A7        109.1465   estimate D2E/DX2                          !
 !       D7        301.5754   estimate D2E/DX2                          !
 !       B8          1.5296   estimate D2E/DX2                          !
 !       A8        111.3308   estimate D2E/DX2                          !
 !       D8        180.0673   estimate D2E/DX2                          !
 !       B9          1.0969   estimate D2E/DX2                          !
 !       A9        109.5681   estimate D2E/DX2                          !
 !       D9         58.6929   estimate D2E/DX2                          !
 !       B10         1.0969   estimate D2E/DX2                          !
 !       A10       109.5698   estimate D2E/DX2                          !
 !       D10       301.4315   estimate D2E/DX2                          !
 !       B11         1.5296   estimate D2E/DX2                          !
 !       A11       111.3293   estimate D2E/DX2                          !
 !       D11       180.0495   estimate D2E/DX2                          !
 !       B12         1.0968   estimate D2E/DX2                          !
 !       A12       109.5621   estimate D2E/DX2                          !
 !       D12        58.6917   estimate D2E/DX2                          !
 !       B13         1.0968   estimate D2E/DX2                          !
 !       A13       109.5714   estimate D2E/DX2                          !
 !       D13       301.4042   estimate D2E/DX2                          !
 !       B14         1.5296   estimate D2E/DX2                          !
 !       A14       111.3341   estimate D2E/DX2                          !
 !       D14       180.1155   estimate D2E/DX2                          !
 !       B15         1.0968   estimate D2E/DX2                          !
 !       A15       109.5632   estimate D2E/DX2                          !
 !       D15        58.7524   estimate D2E/DX2                          !
 !       B16         1.0968   estimate D2E/DX2                          !
 !       A16       109.5689   estimate D2E/DX2                          !
 !       D16       301.4668   estimate D2E/DX2                          !
 !       B17         1.5296   estimate D2E/DX2                          !
 !       A17       111.3244   estimate D2E/DX2                          !
 !       D17       180.0682   estimate D2E/DX2                          !
 !       B18         1.0968   estimate D2E/DX2                          !
 !       A18       109.5621   estimate D2E/DX2                          !
 !       D18        58.7126   estimate D2E/DX2                          !
 !       B19         1.0968   estimate D2E/DX2                          !
 !       A19       109.5742   estimate D2E/DX2                          !
 !       D19       301.4227   estimate D2E/DX2                          !
 !       B20         1.5296   estimate D2E/DX2                          !
 !       A20       111.3339   estimate D2E/DX2                          !
 !       D20       180.1258   estimate D2E/DX2                          !
 !       B21         1.0968   estimate D2E/DX2                          !
 !       A21       109.561    estimate D2E/DX2                          !
 !       D21        58.7632   estimate D2E/DX2                          !
 !       B22         1.0968   estimate D2E/DX2                          !
 !       A22       109.57     estimate D2E/DX2                          !
 !       D22       301.478    estimate D2E/DX2                          !
 !       B23         1.5301   estimate D2E/DX2                          !
 !       A23       111.3321   estimate D2E/DX2                          !
 !       D23       180.0679   estimate D2E/DX2                          !
 !       B24         1.0968   estimate D2E/DX2                          !
 !       A24       109.5536   estimate D2E/DX2                          !
 !       D24        58.7148   estimate D2E/DX2                          !
 !       B25         1.0968   estimate D2E/DX2                          !
 !       A25       109.5748   estimate D2E/DX2                          !
 !       D25       301.4176   estimate D2E/DX2                          !
 !       B26         1.53     estimate D2E/DX2                          !
 !       A26       111.2739   estimate D2E/DX2                          !
 !       D26       180.0745   estimate D2E/DX2                          !
 !       B27         1.0975   estimate D2E/DX2                          !
 !       A27       109.456    estimate D2E/DX2                          !
 !       D27        58.5168   estimate D2E/DX2                          !
 !       B28         1.0974   estimate D2E/DX2                          !
 !       A28       109.4982   estimate D2E/DX2                          !
 !       D28       301.5427   estimate D2E/DX2                          !
 !       B29         1.5018   estimate D2E/DX2                          !
 !       A29       111.2917   estimate D2E/DX2                          !
 !       D29       180.5937   estimate D2E/DX2                          !
 !       B30         1.0969   estimate D2E/DX2                          !
 !       A30       109.659    estimate D2E/DX2                          !
 !       D30        57.8249   estimate D2E/DX2                          !
 !       B31         1.0966   estimate D2E/DX2                          !
 !       A31       109.8285   estimate D2E/DX2                          !
 !       D31       300.6713   estimate D2E/DX2                          !
 !       B32         1.3389   estimate D2E/DX2                          !
 !       A32       124.1042   estimate D2E/DX2                          !
 !       D32       241.9556   estimate D2E/DX2                          !
 !       B33         1.0856   estimate D2E/DX2                          !
 !       A33       121.7592   estimate D2E/DX2                          !
 !       B34         1.0857   estimate D2E/DX2                          !
 !       A34       120.7488   estimate D2E/DX2                          !
 !       B35         1.0883   estimate D2E/DX2                          !
 !       A35       116.909    estimate D2E/DX2                          !
 !       D35        62.5842   estimate D2E/DX2                          !
 !       D33        91.0      Frozen                                    !
 !       D34       271.0      Frozen                                    !
 ------------------------------------------------------------------------
 Trust Radius=3.00D-01 FncErr=1.00D-07 GrdErr=1.00D-07
 Number of steps in this run=    200 maximum allowed number of steps=    204.
 GradGradGradGradGradGradGradGradGradGradGradGradGradGradGradGradGradGrad

 ---------------------------------------------------------------------------------------------------
                            Z-MATRIX (ANGSTROMS AND DEGREES)
   CD    Cent   Atom    N1       Length/X        N2       Alpha/Y        N3        Beta/Z          J
 ---------------------------------------------------------------------------------------------------
      1      1  C 
      2      2  C        1   1.520370(     1)
      3      3  H        1   1.094490(     2)      2  110.262(    36)
      4      4  H        1   1.094690(     3)      2  110.999(    37)      3  240.262(    70)      0
      5      5  H        1   1.094680(     4)      2  111.003(    38)      3  119.743(    71)      0
      6      6  C        2   1.528460(     5)      1  111.493(    39)      3  180.024(    72)      0
      7      7  H        2   1.096220(     6)      1  109.144(    40)      3   58.466(    73)      0
      8      8  H        2   1.096220(     7)      1  109.147(    41)      3  301.575(    74)      0
      9      9  C        6   1.529570(     8)      2  111.331(    42)      1  180.067(    75)      0
     10     10  H        6   1.096850(     9)      2  109.568(    43)      1   58.693(    76)      0
     11     11  H        6   1.096850(    10)      2  109.570(    44)      1  301.432(    77)      0
     12     12  C        9   1.529590(    11)      6  111.329(    45)      2  180.050(    78)      0
     13     13  H        9   1.096820(    12)      6  109.562(    46)      2   58.692(    79)      0
     14     14  H        9   1.096820(    13)      6  109.571(    47)      2  301.404(    80)      0
     15     15  C       12   1.529580(    14)      9  111.334(    48)      6  180.115(    81)      0
     16     16  H       12   1.096810(    15)      9  109.563(    49)      6   58.752(    82)      0
     17     17  H       12   1.096810(    16)      9  109.569(    50)      6  301.467(    83)      0
     18     18  C       15   1.529580(    17)     12  111.324(    51)      9  180.068(    84)      0
     19     19  H       15   1.096810(    18)     12  109.562(    52)      9   58.713(    85)      0
     20     20  H       15   1.096810(    19)     12  109.574(    53)      9  301.423(    86)      0
     21     21  C       18   1.529600(    20)     15  111.334(    54)     12  180.126(    87)      0
     22     22  H       18   1.096810(    21)     15  109.561(    55)     12   58.763(    88)      0
     23     23  H       18   1.096810(    22)     15  109.570(    56)     12  301.478(    89)      0
     24     24  C       21   1.530060(    23)     18  111.332(    57)     15  180.068(    90)      0
     25     25  H       21   1.096810(    24)     18  109.554(    58)     15   58.715(    91)      0
     26     26  H       21   1.096810(    25)     18  109.575(    59)     15  301.418(    92)      0
     27     27  C       24   1.529970(    26)     21  111.274(    60)     18  180.075(    93)      0
     28     28  H       24   1.097450(    27)     21  109.456(    61)     18   58.517(    94)      0
     29     29  H       24   1.097440(    28)     21  109.498(    62)     18  301.543(    95)      0
     30     30  C       27   1.501750(    29)     24  111.292(    63)     21  180.594(    96)      0
     31     31  H       27   1.096900(    30)     24  109.659(    64)     21   57.825(    97)      0
     32     32  H       27   1.096570(    31)     24  109.828(    65)     21  300.671(    98)      0
     33     33  C       30   1.338890(    32)     27  124.104(    66)     24  241.956(    99)      0
     34     34  H       33   1.085550(    33)     30  121.759(    67)     27   91.000(   100)      0
     35     35  H       33   1.085710(    34)     30  120.749(    68)     27  271.000(   101)      0
     36     36  H       30   1.088280(    35)     27  116.909(    69)     24   62.584(   102)      0
 ---------------------------------------------------------------------------------------------------
                         Z-Matrix orientation:                         
 ---------------------------------------------------------------------
 Center     Atomic      Atomic             Coordinates (Angstroms)
 Number     Number       Type             X           Y           Z
 ---------------------------------------------------------------------
      1          6           0        0.000000    0.000000    0.000000
      2          6           0        0.000000    0.000000    1.520370
      3          1           0        1.026765    0.000000   -0.379028
      4          1           0       -0.506937    0.887394   -0.392291
      5          1           0       -0.506996   -0.887322   -0.392350
      6          6           0       -1.422170   -0.000585    2.080391
      7          1           0        0.541621    0.882669    1.879869
      8          1           0        0.542250   -0.882265    1.879914
      9          6           0       -1.417829    0.001091    3.609954
     10          1           0       -1.960390   -0.883823    1.715305
     11          1           0       -1.961845    0.881033    1.713538
     12          6           0       -2.841064   -0.000725    4.170352
     13          1           0       -0.880476    0.884957    3.974709
     14          1           0       -0.877544   -0.880117    3.976802
     15          6           0       -2.836857    0.003823    5.699919
     16          1           0       -3.377699   -0.885606    3.807035
     17          1           0       -3.382035    0.879433    3.802024
     18          6           0       -4.260172    0.000310    6.260077
     19          1           0       -2.301279    0.889417    6.063059
     20          1           0       -2.294922   -0.875633    6.068507
     21          6           0       -4.256232    0.007986    7.789653
     22          1           0       -4.794941   -0.886396    5.898461
     23          1           0       -4.802856    0.878620    5.889863
     24          6           0       -5.680003    0.002782    8.349950
     25          1           0       -3.722490    0.895453    8.150919
     26          1           0       -3.712685   -0.869677    8.160135
     27          6           0       -5.674519    0.012323    9.879880
     28          1           0       -6.213070   -0.884521    7.985355
     29          1           0       -6.223979    0.879534    7.976089
     30          6           0       -7.071612   -0.007278   10.430335
     31          1           0       -5.128482    0.892261   10.241464
     32          1           0       -5.141577   -0.869376   10.255440
     33          6           0       -7.595135    0.967368   11.184400
     34          1           0       -8.137968    1.799340   10.746707
     35          1           0       -7.489285    0.950877   12.264812
     36          1           0       -7.679357   -0.880293   10.200458
 ---------------------------------------------------------------------
                    Distance matrix (angstroms):
                    1          2          3          4          5
     1  C    0.000000
     2  C    1.520370   0.000000
     3  H    1.094490   2.159157   0.000000
     4  H    1.094690   2.168577   1.771972   0.000000
     5  H    1.094680   2.168613   1.771988   1.774717   0.000000
     6  C    2.520038   1.528460   3.470738   2.782142   2.781779
     7  H    2.146244   1.096220   2.473274   2.502440   3.065199
     8  H    2.146276   1.096220   2.473047   3.065192   2.502823
     9  C    3.878402   2.525193   4.678463   4.199193   4.199682
    10  H    2.750735   2.159230   3.753727   3.113149   2.560191
    11  H    2.749776   2.159252   3.753244   2.559554   3.111018
    12  C    5.046135   3.885106   5.971344   5.201405   5.201170
    13  H    4.166137   2.753574   4.834847   4.382948   4.727755
    14  H    4.166491   2.752953   4.834693   4.727624   4.384843
    15  C    6.366856   5.051376   7.202859   6.582116   6.583171
    16  H    5.165913   4.173965   6.140580   5.386942   5.086823
    17  H    5.164005   4.173428   6.139390   5.085128   5.383311
    18  C    7.572162   6.372903   8.487015   7.689454   7.689539
    19  H    6.545810   5.169427   7.305301   6.700091   6.931707
    20  H    6.546768   5.169037   7.305548   6.931599   6.703692
    21  C    8.876613   7.577564   9.728179   9.042941   9.044530
    22  H    7.653038   6.553231   8.607254   7.817088   7.613197
    23  H    7.650482   6.552241   8.605547   7.610549   7.812756
    24  C   10.098718   8.882882  11.007988  10.196564  10.197063
    25  H    9.005346   7.656563   9.803941   9.128324   9.300814
    26  H    9.007118   7.656817   9.804898   9.300974   9.133551
    27  C   11.393522  10.103550  12.253675  11.532006  11.533922
    28  H   10.156304   9.010030  11.097769  10.290024  10.136332
    29  H   10.155269   9.010427  11.097515  10.134812  10.287684
    30  C   12.601572  11.375202  13.506520  12.689548  12.688545
    31  H   11.488475  10.156522  12.307642  11.594631  11.730433
    32  H   11.505028  10.173154  12.324616  11.744799  11.612713
    33  C   13.554065  12.329451  14.456342  13.574562  13.700465
    34  H   13.599848  12.433400  14.526250  13.532980  13.766934
    35  H   14.402054  13.131511  15.273963  14.455431  14.571722
    36  H   12.798312  11.622882  13.729421  12.914127  12.792592
                    6          7          8          9         10
     6  C    0.000000
     7  H    2.162596   0.000000
     8  H    2.162521   1.764935   0.000000
     9  C    1.529570   2.758590   2.759577   0.000000
    10  H    1.096850   3.067188   2.508049   2.160357   0.000000
    11  H    1.096850   2.508986   3.067147   2.160241   1.764858
    12  C    2.526103   4.179624   4.179717   1.529590   2.753671
    13  H    2.160106   2.531941   3.087943   1.096820   3.065894
    14  H    2.160225   3.085219   2.532343   1.096820   2.507378
    15  C    3.886174   5.174869   5.176481   2.526184   4.175316
    16  H    2.754752   4.711883   4.368044   2.160130   2.526678
    17  H    2.753093   4.369184   4.711486   2.160203   3.079698
    18  C    5.052132   6.559116   6.559576   3.886138   5.169685
    19  H    4.174516   5.057787   5.359405   2.754511   4.707818
    20  H    4.175222   5.355585   5.059042   2.753620   4.366045
    21  C    6.373983   7.662246   7.664398   5.052372   6.554687
    22  H    5.170871   6.910685   6.680894   4.174899   5.053066
    23  H    5.168570   6.681580   6.910178   4.174500   5.349089
    24  C    7.578689   9.019133   9.020039   6.374456   7.657682
    25  H    6.553295   7.583462   7.789339   5.170272   6.905647
    26  H    6.554775   7.785345   7.585896   5.169986   6.678816
    27  C    8.883393  10.168485  10.170937   7.578358   9.014328
    28  H    7.655238   9.275008   9.105535   6.551548   7.576200
    29  H    7.654491   9.106989   9.276268   6.552394   7.777212
    30  C   10.081558  11.483196  11.482430   8.859059  10.141236
    31  H    9.007611  10.102794  10.257762   7.651148   9.267507
    32  H    9.023315  10.272224  10.122030   7.667235   9.113400
    33  C   11.041984  12.360756  12.498466   9.821662  11.173228
    34  H   11.110658  12.441719  12.694771   9.966304  11.266235
    35  H   11.892754  13.128106  13.255643  10.614671  12.051012
    36  H   10.288916  11.828979  11.697277   9.133363  10.232518
                   11         12         13         14         15
    11  H    0.000000
    12  C    2.754352   0.000000
    13  H    2.506446   2.160234   0.000000
    14  H    3.065897   2.160139   1.765078   0.000000
    15  C    4.174491   1.529580   2.753212   2.754885   0.000000
    16  H    3.083567   1.096810   3.065801   2.505919   2.160233
    17  H    2.525611   1.096810   2.507518   3.065785   2.160074
    18  C    5.170010   2.526029   4.174668   4.175006   1.529580
    19  H    4.362754   2.160107   2.525848   3.083949   1.096810
    20  H    4.707714   2.160261   3.079663   2.526699   1.096810
    21  C    6.553289   3.886145   5.169004   5.171276   2.526189
    22  H    5.353860   2.754707   4.707605   4.363349   2.160092
    23  H    5.051043   2.752925   4.364965   4.707550   2.160208
    24  C    7.657544   5.052586   6.554115   6.554963   3.886662
    25  H    6.673826   4.174322   5.051523   5.354402   2.754406
    26  H    6.905725   4.175306   5.349574   5.053554   2.753678
    27  C    9.012644   6.373959   7.656068   7.658573   5.052175
    28  H    7.779832   5.167763   6.903107   6.673556   4.172671
    29  H    7.575310   5.167456   6.675634   6.904711   4.173777
    30  C   10.143045   7.555459   8.988957   8.987569   6.349024
    31  H    9.096881   6.548902   7.570854   7.775461   5.163962
    32  H    9.281094   6.563171   7.789881   7.589689   5.179477
    33  C   11.019920   8.528498   9.852567  10.024405   7.324559
    34  H   10.981162   8.633995   9.968312  10.282259   7.536294
    35  H   11.911627   9.382526  10.602193  10.759125   8.101840
    36  H   10.383642   7.781061   9.386205   9.219466   6.669807
                   16         17         18         19         20
    16  H    0.000000
    17  H    1.765051   0.000000
    18  C    2.753366   2.754271   0.000000
    19  H    3.065784   2.506075   2.160229   0.000000
    20  H    2.507341   3.065781   2.160135   1.765070   0.000000
    21  C    4.175114   4.174306   1.529600   2.753160   2.754971
    22  H    2.526388   3.083748   1.096810   3.065771   2.505818
    23  H    3.079243   2.525432   1.096810   2.507588   3.065787
    24  C    5.169905   5.170378   2.526558   4.175137   4.175568
    25  H    4.707482   4.362231   2.160015   2.525676   3.084013
    26  H    4.366000   4.707638   2.160287   3.079644   2.526855
    27  C    6.554472   6.553449   3.886321   5.168768   5.170755
    28  H    5.049524   5.350379   2.751966   4.705761   4.361911
    29  H    5.347714   5.049700   2.752139   4.364327   4.707119
    30  C    7.634432   7.637653   5.029443   6.529413   6.526588
    31  H    6.901300   6.672079   4.171449   5.045013   5.344912
    32  H    6.685317   6.913819   4.182840   5.360662   5.062992
    33  C    8.697460   8.500437   6.025457   7.366079   7.593502
    34  H    8.833354   8.467217   6.197068   7.538664   7.948724
    35  H    9.581848   9.407093   6.883864   8.085847   8.289255
    36  H    7.705852   7.905921   5.290831   7.012394   6.787134
                   21         22         23         24         25
    21  C    0.000000
    22  H    2.160262   0.000000
    23  H    2.160093   1.765055   0.000000
    24  C    1.530060   2.753865   2.754724   0.000000
    25  H    1.096810   3.065731   2.505963   2.160632   0.000000
    26  H    1.096810   2.507335   3.065803   2.160452   1.765182
    27  C    2.525986   4.175291   4.174985   1.529970   2.753114
    28  H    2.159649   2.523137   3.080334   1.097450   3.065731
    29  H    2.160181   3.078506   2.524268   1.097440   2.507641
    30  C    3.860025   5.147228   5.152471   2.502934   4.150575
    31  H    2.748480   4.704950   4.363789   2.161753   2.519365
    32  H    2.762916   4.370779   4.714709   2.163667   3.091510
    33  C    4.857262   6.262482   5.986387   3.554190   4.919812
    34  H    5.198172   6.472596   5.963190   3.874746   5.201112
    35  H    5.600779   7.153006   6.918244   4.415714   5.578165
    36  H    4.280048   5.179486   5.472593   2.863847   4.796945
                   26         27         28         29         30
    26  H    0.000000
    27  C    2.753949   0.000000
    28  H    2.506530   2.164161   0.000000
    29  H    3.065976   2.162957   1.764112   0.000000
    30  C    4.144867   1.501750   2.735795   2.743764   0.000000
    31  H    3.072595   1.096900   3.069742   2.516387   2.149557
    32  H    2.536145   1.096570   2.510302   3.070134   2.121046
    33  C    5.253030   2.510508   3.946326   3.490136   1.338890
    34  H    5.779025   3.164395   4.305044   3.490806   2.121573
    35  H    5.867324   3.140407   4.828164   4.472051   2.111355
    36  H    4.460663   2.217862   2.656445   3.187936   1.088280
                   31         32         33         34         35
    31  H    0.000000
    32  H    1.761741   0.000000
    33  C    2.641807   3.202584   0.000000
    34  H    3.183562   4.042492   1.085550   0.000000
    35  H    3.109785   3.586451   1.085710   1.856157   0.000000
    36  H    3.106541   2.538400   2.095015   2.772930   2.766020
                   36
    36  H    0.000000
 Stoichiometry    C12H24
 Framework group  C1[X(C12H24)]
 Deg. of freedom   102
 Full point group                 C1      NOp   1
 Largest Abelian subgroup         C1      NOp   1
 Largest concise Abelian subgroup C1      NOp   1
                         Standard orientation:                         
 ---------------------------------------------------------------------
 Center     Atomic      Atomic             Coordinates (Angstroms)
 Number     Number       Type             X           Y           Z
 ---------------------------------------------------------------------
      1          6           0       -6.772974   -0.426076    0.058923
      2          6           0       -5.523174    0.435227    0.146579
      3          1           0       -7.668428    0.192336    0.175699
      4          1           0       -6.780816   -1.187233    0.845640
      5          1           0       -6.833550   -0.932157   -0.909858
      6          6           0       -4.254104   -0.401404   -0.013726
      7          1           0       -5.509431    0.951462    1.113539
      8          1           0       -5.562180    1.205749   -0.632184
      9          6           0       -2.999166    0.468387    0.076704
     10          1           0       -4.274390   -0.917963   -0.981112
     11          1           0       -4.222589   -1.173885    0.764323
     12          6           0       -1.729216   -0.368717   -0.084941
     13          1           0       -2.978639    0.983965    1.044574
     14          1           0       -3.031018    1.241302   -0.700858
     15          6           0       -0.474113    0.500555    0.008312
     16          1           0       -1.748999   -0.882752   -1.053636
     17          1           0       -1.698221   -1.142875    0.691404
     18          6           0        0.795635   -0.336507   -0.155037
     19          1           0       -0.453853    1.013529    0.977559
     20          1           0       -0.505422    1.275541   -0.767194
     21          6           0        2.050989    0.532105   -0.058725
     22          1           0        0.776134   -0.847801   -1.125186
     23          1           0        0.825998   -1.112857    0.619141
     24          6           0        3.321060   -0.305006   -0.223799
     25          1           0        2.070808    1.042258    0.912019
     26          1           0        2.020375    1.309214   -0.832131
     27          6           0        4.575883    0.564791   -0.125413
     28          1           0        3.298126   -0.816521   -1.194481
     29          1           0        3.349114   -1.084246    0.548452
     30          6           0        5.822265   -0.254177   -0.301695
     31          1           0        4.588749    1.086184    0.839560
     32          1           0        4.555353    1.336753   -0.903950
     33          6           0        6.768793   -0.391917    0.635182
     34          1           0        6.742395   -1.199953    1.359613
     35          1           0        7.596248    0.308406    0.695452
     36          1           0        5.952965   -0.752023   -1.260560
 ---------------------------------------------------------------------
 Rotational constants (GHZ):      6.3593037      0.1581898      0.1569858
 Standard basis: def2SVP (5D, 7F)
 There are   300 symmetry adapted cartesian basis functions of A   symmetry.
 There are   288 symmetry adapted basis functions of A   symmetry.
   288 basis functions,   468 primitive gaussians,   300 cartesian basis functions
    48 alpha electrons       48 beta electrons
       nuclear repulsion energy       654.6599883033 Hartrees.
 NAtoms=   36 NActive=   36 NUniq=   36 SFac= 1.00D+00 NAtFMM=   60 NAOKFM=F Big=F
 Integral buffers will be    131072 words long.
 Raffenetti 2 integral format.
 Two-electron integral symmetry is turned on.
 One-electron integrals computed using PRISM.
   1 Symmetry operations used in ECPInt.
 ECPInt:  NShTT=   10440 NPrTT=   35208 LenC2=    8759 LenP2D=   21882.
 LDataN:  DoStor=T MaxTD1= 4 Len=   56
 NBasis=   288 RedAO= T EigKep=  7.65D-04  NBF=   288
 NBsUse=   288 1.00D-06 EigRej= -1.00D+00 NBFU=   288
 ExpMin= 1.22D-01 ExpMax= 1.24D+03 ExpMxC= 1.86D+02 IAcc=3 IRadAn=         7 AccDes= 0.00D+00
 Harris functional with IExCor= 1009 and IRadAn=       7 diagonalized for initial guess.
 HarFok:  IExCor= 1009 AccDes= 0.00D+00 IRadAn=         7 IDoV= 1 UseB2=F ITyADJ=14
 ICtDFT=  3500011 ScaDFX=  1.000000  1.000000  1.000000  1.000000
 FoFCou: FMM=F IPFlag=           0 FMFlag=      100000 FMFlg1=           0
         NFxFlg=           0 DoJE=T BraDBF=F KetDBF=T FulRan=T
         wScrn=  0.000000 ICntrl=     500 IOpCl=  0 I1Cent=   200000004 NGrid=           0
         NMat0=    1 NMatS0=      1 NMatT0=    0 NMatD0=    1 NMtDS0=    0 NMtDT0=    0
 Petite list used in FoFCou.
 Keep R1 ints in memory in canonical form, NReq=879895090.
 Requested convergence on RMS density matrix=1.00D-08 within 128 cycles.
 Requested convergence on MAX density matrix=1.00D-06.
 Requested convergence on             energy=1.00D-06.
 No special actions if energy rises.
 Integral accuracy reduced to 1.0D-05 until final iterations.
 Initial convergence to 1.0D-05 achieved.  Increase integral accuracy.
 SCF Done:  E(RM06) =  -470.826682057     A.U. after   17 cycles
            NFock= 17  Conv=0.41D-08     -V/T= 2.0121

 **********************************************************************

            Population analysis using the SCF density.

 **********************************************************************

 Orbital symmetries:
       Occupied  (A) (A) (A) (A) (A) (A) (A) (A) (A) (A) (A) (A)
                 (A) (A) (A) (A) (A) (A) (A) (A) (A) (A) (A) (A)
                 (A) (A) (A) (A) (A) (A) (A) (A) (A) (A) (A) (A)
                 (A) (A) (A) (A) (A) (A) (A) (A) (A) (A) (A) (A)
       Virtual   (A) (A) (A) (A) (A) (A) (A) (A) (A) (A) (A) (A)
                 (A) (A) (A) (A) (A) (A) (A) (A) (A) (A) (A) (A)
                 (A) (A) (A) (A) (A) (A) (A) (A) (A) (A) (A) (A)
                 (A) (A) (A) (A) (A) (A) (A) (A) (A) (A) (A) (A)
                 (A) (A) (A) (A) (A) (A) (A) (A) (A) (A) (A) (A)
                 (A) (A) (A) (A) (A) (A) (A) (A) (A) (A) (A) (A)
                 (A) (A) (A) (A) (A) (A) (A) (A) (A) (A) (A) (A)
                 (A) (A) (A) (A) (A) (A) (A) (A) (A) (A) (A) (A)
                 (A) (A) (A) (A) (A) (A) (A) (A) (A) (A) (A) (A)
                 (A) (A) (A) (A) (A) (A) (A) (A) (A) (A) (A) (A)
                 (A) (A) (A) (A) (A) (A) (A) (A) (A) (A) (A) (A)
                 (A) (A) (A) (A) (A) (A) (A) (A) (A) (A) (A) (A)
                 (A) (A) (A) (A) (A) (A) (A) (A) (A) (A) (A) (A)
                 (A) (A) (A) (A) (A) (A) (A) (A) (A) (A) (A) (A)
                 (A) (A) (A) (A) (A) (A) (A) (A) (A) (A) (A) (A)
                 (A) (A) (A) (A) (A) (A) (A) (A) (A) (A) (A) (A)
                 (A) (A) (A) (A) (A) (A) (A) (A) (A) (A) (A) (A)
                 (A) (A) (A) (A) (A) (A) (A) (A) (A) (A) (A) (A)
                 (A) (A) (A) (A) (A) (A) (A) (A) (A) (A) (A) (A)
                 (A) (A) (A) (A) (A) (A) (A) (A) (A) (A) (A) (A)
 The electronic state is 1-A.
 Alpha  occ. eigenvalues --  -10.26028 -10.25103 -10.24804 -10.24459 -10.24174
 Alpha  occ. eigenvalues --  -10.23990 -10.23868 -10.23829 -10.23788 -10.23747
 Alpha  occ. eigenvalues --  -10.23273 -10.22292  -0.82609  -0.81312  -0.79314
 Alpha  occ. eigenvalues --   -0.76631  -0.73337  -0.69449  -0.65099  -0.60824
 Alpha  occ. eigenvalues --   -0.58708  -0.57914  -0.57650  -0.55215  -0.49992
 Alpha  occ. eigenvalues --   -0.48674  -0.46732  -0.44956  -0.44715  -0.44111
 Alpha  occ. eigenvalues --   -0.43497  -0.42524  -0.41919  -0.40393  -0.39879
 Alpha  occ. eigenvalues --   -0.39086  -0.37594  -0.36491  -0.35607  -0.35147
 Alpha  occ. eigenvalues --   -0.34523  -0.34358  -0.33762  -0.33665  -0.33287
 Alpha  occ. eigenvalues --   -0.33046  -0.30644  -0.16377
 Alpha virt. eigenvalues --   -0.08029   0.06151   0.06930   0.07828   0.08127
 Alpha virt. eigenvalues --    0.08619   0.09279   0.09780   0.10152   0.11296
 Alpha virt. eigenvalues --    0.11491   0.12621   0.13165   0.14253   0.14638
 Alpha virt. eigenvalues --    0.15405   0.15686   0.16065   0.16129   0.16737
 Alpha virt. eigenvalues --    0.17114   0.18036   0.18343   0.19347   0.19562
 Alpha virt. eigenvalues --    0.20210   0.20541   0.22435   0.22921   0.23368
 Alpha virt. eigenvalues --    0.25650   0.26401   0.27955   0.31920   0.33030
 Alpha virt. eigenvalues --    0.34827   0.38374   0.40513   0.41335   0.42206
 Alpha virt. eigenvalues --    0.42455   0.43157   0.43619   0.43847   0.44778
 Alpha virt. eigenvalues --    0.46936   0.48485   0.49593   0.50525   0.50814
 Alpha virt. eigenvalues --    0.52000   0.52989   0.54423   0.54991   0.56666
 Alpha virt. eigenvalues --    0.58460   0.60092   0.61016   0.61816   0.61908
 Alpha virt. eigenvalues --    0.62096   0.62273   0.62499   0.62830   0.63134
 Alpha virt. eigenvalues --    0.63348   0.64183   0.64512   0.64897   0.65560
 Alpha virt. eigenvalues --    0.65886   0.66074   0.66226   0.66485   0.66877
 Alpha virt. eigenvalues --    0.66966   0.67127   0.68014   0.68666   0.68748
 Alpha virt. eigenvalues --    0.69177   0.69774   0.70171   0.70716   0.71208
 Alpha virt. eigenvalues --    0.71398   0.71595   0.71892   0.72656   0.72936
 Alpha virt. eigenvalues --    0.74249   0.78376   0.82157   0.86598   0.88056
 Alpha virt. eigenvalues --    0.91347   0.94386   0.98232   0.98761   1.00408
 Alpha virt. eigenvalues --    1.01143   1.01782   1.02265   1.02822   1.03946
 Alpha virt. eigenvalues --    1.05366   1.07441   1.09194   1.17547   1.19671
 Alpha virt. eigenvalues --    1.21763   1.23400   1.26760   1.31293   1.31636
 Alpha virt. eigenvalues --    1.32651   1.33380   1.34527   1.35669   1.36087
 Alpha virt. eigenvalues --    1.37117   1.37596   1.37841   1.41660   1.46799
 Alpha virt. eigenvalues --    1.52411   1.52582   1.56246   1.58459   1.60818
 Alpha virt. eigenvalues --    1.65211   1.66009   1.66298   1.66425   1.69492
 Alpha virt. eigenvalues --    1.71248   1.72149   1.73129   1.73872   1.73962
 Alpha virt. eigenvalues --    1.74605   1.75015   1.76023   1.76462   1.77445
 Alpha virt. eigenvalues --    1.77955   1.78819   1.79188   1.79646   1.80052
 Alpha virt. eigenvalues --    1.80240   1.80925   1.81143   1.81937   1.82348
 Alpha virt. eigenvalues --    1.83015   1.83912   1.84369   1.85481   1.86020
 Alpha virt. eigenvalues --    1.87296   1.88852   1.89792   1.90586   1.91281
 Alpha virt. eigenvalues --    1.91746   1.92319   1.92738   1.93177   1.94164
 Alpha virt. eigenvalues --    1.96250   1.98384   1.99327   2.00462   2.03972
 Alpha virt. eigenvalues --    2.05909   2.06543   2.09562   2.10180   2.10650
 Alpha virt. eigenvalues --    2.14061   2.15263   2.18911   2.20839   2.23602
 Alpha virt. eigenvalues --    2.27725   2.29385   2.31213   2.35818   2.37085
 Alpha virt. eigenvalues --    2.37339   2.39803   2.40651   2.41262   2.41606
 Alpha virt. eigenvalues --    2.42150   2.43153   2.44521   2.45948   2.46618
 Alpha virt. eigenvalues --    2.49293   2.50692   2.51233   2.51999   2.55670
 Alpha virt. eigenvalues --    2.56373   2.57048   2.57359   2.59013   2.59540
 Alpha virt. eigenvalues --    2.60339   2.61415   2.62823   2.65082   2.69598
 Alpha virt. eigenvalues --    2.74549   2.75619   2.78701   2.82053   2.82869
 Alpha virt. eigenvalues --    2.83869   2.84705   2.85999   2.87917   2.89424
 Alpha virt. eigenvalues --    2.91877   2.92012   2.92497   2.94986   2.96277
 Alpha virt. eigenvalues --    2.97131   2.98038   2.99409   3.00003   3.01033
 Alpha virt. eigenvalues --    3.02070   3.03589   3.04525   3.05627   3.07246
          Condensed to atoms (all electrons):
               1          2          3          4          5          6
     1  C    4.570946   0.421966   0.378084   0.394134   0.394089  -0.058867
     2  C    0.421966   4.673518  -0.014026  -0.023352  -0.023349   0.398764
     3  H    0.378084  -0.014026   0.655994  -0.024798  -0.024803   0.008289
     4  H    0.394134  -0.023352  -0.024798   0.652952  -0.027896  -0.008682
     5  H    0.394089  -0.023349  -0.024803  -0.027896   0.653070  -0.008681
     6  C   -0.058867   0.398764   0.008289  -0.008682  -0.008681   4.751609
     7  H   -0.023800   0.375337  -0.006690  -0.010171   0.008795  -0.022846
     8  H   -0.023771   0.375258  -0.006702   0.008794  -0.010160  -0.022789
     9  C    0.009396  -0.046191  -0.000555   0.000468   0.000470   0.364489
    10  H   -0.004380  -0.027243  -0.000047  -0.001940   0.007549   0.374757
    11  H   -0.004362  -0.027299  -0.000045   0.007551  -0.001946   0.374893
    12  C   -0.000510   0.008373   0.000016  -0.000008  -0.000008  -0.043115
    13  H    0.000293  -0.006614   0.000008  -0.000053   0.000024  -0.022259
    14  H    0.000297  -0.006604   0.000008   0.000024  -0.000053  -0.022237
    15  C    0.000009  -0.000440   0.000000   0.000000   0.000000   0.008169
    16  H    0.000007   0.000317   0.000000   0.000004  -0.000010  -0.007010
    17  H    0.000007   0.000324   0.000000  -0.000010   0.000004  -0.006987
    18  C    0.000000   0.000008   0.000000   0.000000   0.000000  -0.000459
    19  H    0.000000   0.000003   0.000000   0.000000   0.000000   0.000373
    20  H    0.000000   0.000003   0.000000   0.000000   0.000000   0.000382
    21  C    0.000000   0.000000   0.000000   0.000000   0.000000   0.000008
    22  H    0.000000   0.000000   0.000000   0.000000   0.000000   0.000003
    23  H    0.000000   0.000000   0.000000   0.000000   0.000000   0.000003
    24  C    0.000000   0.000000   0.000000   0.000000   0.000000   0.000000
    25  H    0.000000   0.000000   0.000000   0.000000   0.000000   0.000000
    26  H    0.000000   0.000000   0.000000   0.000000   0.000000   0.000000
    27  C    0.000000   0.000000   0.000000   0.000000   0.000000   0.000000
    28  H    0.000000   0.000000   0.000000   0.000000   0.000000   0.000000
    29  H    0.000000   0.000000   0.000000   0.000000   0.000000   0.000000
    30  C    0.000000   0.000000   0.000000   0.000000   0.000000   0.000000
    31  H    0.000000   0.000000   0.000000   0.000000   0.000000   0.000000
    32  H    0.000000   0.000000   0.000000   0.000000   0.000000   0.000000
    33  C    0.000000   0.000000   0.000000   0.000000   0.000000   0.000000
    34  H    0.000000   0.000000   0.000000   0.000000   0.000000   0.000000
    35  H    0.000000   0.000000   0.000000   0.000000   0.000000   0.000000
    36  H    0.000000   0.000000   0.000000   0.000000   0.000000   0.000000
               7          8          9         10         11         12
     1  C   -0.023800  -0.023771   0.009396  -0.004380  -0.004362  -0.000510
     2  C    0.375337   0.375258  -0.046191  -0.027243  -0.027299   0.008373
     3  H   -0.006690  -0.006702  -0.000555  -0.000047  -0.000045   0.000016
     4  H   -0.010171   0.008794   0.000468  -0.001940   0.007551  -0.000008
     5  H    0.008795  -0.010160   0.000470   0.007549  -0.001946  -0.000008
     6  C   -0.022846  -0.022789   0.364489   0.374757   0.374893  -0.043115
     7  H    0.690687  -0.034849  -0.007367   0.009494  -0.011828   0.000363
     8  H   -0.034849   0.690795  -0.007384  -0.011869   0.009493   0.000358
     9  C   -0.007367  -0.007384   4.748917  -0.020983  -0.020996   0.364627
    10  H    0.009494  -0.011869  -0.020983   0.695947  -0.037122  -0.007337
    11  H   -0.011828   0.009493  -0.020996  -0.037122   0.695744  -0.007356
    12  C    0.000363   0.000358   0.364627  -0.007337  -0.007356   4.746203
    13  H    0.007895  -0.002029   0.372429   0.009427  -0.011938  -0.021301
    14  H   -0.002037   0.007894   0.372289  -0.011915   0.009427  -0.021222
    15  C    0.000004   0.000004  -0.044244   0.000437   0.000431   0.367729
    16  H    0.000015  -0.000040  -0.021503   0.007724  -0.002007   0.371886
    17  H   -0.000040   0.000015  -0.021589  -0.002018   0.007731   0.372118
    18  C    0.000000   0.000000   0.008402   0.000001   0.000001  -0.045558
    19  H   -0.000012   0.000005  -0.007052   0.000014  -0.000040  -0.021156
    20  H    0.000005  -0.000012  -0.007040  -0.000040   0.000014  -0.021102
    21  C    0.000000   0.000000  -0.000458   0.000000   0.000000   0.008418
    22  H    0.000000   0.000000   0.000383  -0.000012   0.000005  -0.007072
    23  H    0.000000   0.000000   0.000390   0.000005  -0.000012  -0.007060
    24  C    0.000000   0.000000   0.000008   0.000000   0.000000  -0.000446
    25  H    0.000000   0.000000   0.000002   0.000000   0.000000   0.000387
    26  H    0.000000   0.000000   0.000002   0.000000   0.000000   0.000382
    27  C    0.000000   0.000000   0.000000   0.000000   0.000000   0.000007
    28  H    0.000000   0.000000   0.000000   0.000000   0.000000  -0.000001
    29  H    0.000000   0.000000   0.000000   0.000000   0.000000  -0.000003
    30  C    0.000000   0.000000   0.000000   0.000000   0.000000   0.000000
    31  H    0.000000   0.000000   0.000000   0.000000   0.000000   0.000000
    32  H    0.000000   0.000000   0.000000   0.000000   0.000000   0.000000
    33  C    0.000000   0.000000   0.000000   0.000000   0.000000   0.000000
    34  H    0.000000   0.000000   0.000000   0.000000   0.000000   0.000000
    35  H    0.000000   0.000000   0.000000   0.000000   0.000000   0.000000
    36  H    0.000000   0.000000   0.000000   0.000000   0.000000   0.000000
              13         14         15         16         17         18
     1  C    0.000293   0.000297   0.000009   0.000007   0.000007   0.000000
     2  C   -0.006614  -0.006604  -0.000440   0.000317   0.000324   0.000008
     3  H    0.000008   0.000008   0.000000   0.000000   0.000000   0.000000
     4  H   -0.000053   0.000024   0.000000   0.000004  -0.000010   0.000000
     5  H    0.000024  -0.000053   0.000000  -0.000010   0.000004   0.000000
     6  C   -0.022259  -0.022237   0.008169  -0.007010  -0.006987  -0.000459
     7  H    0.007895  -0.002037   0.000004   0.000015  -0.000040   0.000000
     8  H   -0.002029   0.007894   0.000004  -0.000040   0.000015   0.000000
     9  C    0.372429   0.372289  -0.044244  -0.021503  -0.021589   0.008402
    10  H    0.009427  -0.011915   0.000437   0.007724  -0.002018   0.000001
    11  H   -0.011938   0.009427   0.000431  -0.002007   0.007731   0.000001
    12  C   -0.021301  -0.021222   0.367729   0.371886   0.372118  -0.045558
    13  H    0.695275  -0.036258  -0.007240   0.009356  -0.011838   0.000403
    14  H   -0.036258   0.695503  -0.007261  -0.011906   0.009354   0.000396
    15  C   -0.007240  -0.007261   4.740190  -0.021147  -0.021209   0.370110
    16  H    0.009356  -0.011906  -0.021147   0.695158  -0.036098  -0.007251
    17  H   -0.011838   0.009354  -0.021209  -0.036098   0.694770  -0.007253
    18  C    0.000403   0.000396   0.370110  -0.007251  -0.007253   4.739494
    19  H    0.007763  -0.001989   0.372222   0.009330  -0.011879  -0.021465
    20  H   -0.002002   0.007756   0.371896  -0.011861   0.009330  -0.021608
    21  C    0.000003   0.000003  -0.044674   0.000398   0.000394   0.371783
    22  H    0.000014  -0.000040  -0.020811   0.007753  -0.001987   0.372336
    23  H   -0.000040   0.000014  -0.020629  -0.002005   0.007750   0.371304
    24  C    0.000000   0.000000   0.008098   0.000003   0.000002  -0.046564
    25  H   -0.000012   0.000005  -0.007217   0.000014  -0.000040  -0.020279
    26  H    0.000005  -0.000012  -0.006922  -0.000039   0.000014  -0.021224
    27  C    0.000000   0.000000  -0.000429   0.000000   0.000000   0.008133
    28  H    0.000000   0.000000   0.000459  -0.000012   0.000005  -0.006898
    29  H    0.000000   0.000000   0.000419   0.000006  -0.000012  -0.006310
    30  C    0.000000   0.000000   0.000007   0.000000   0.000000  -0.000309
    31  H    0.000000   0.000000   0.000018   0.000000   0.000000   0.000328
    32  H    0.000000   0.000000  -0.000006   0.000000   0.000000   0.000678
    33  C    0.000000   0.000000   0.000000   0.000000   0.000000   0.000007
    34  H    0.000000   0.000000   0.000000   0.000000   0.000000  -0.000002
    35  H    0.000000   0.000000   0.000000   0.000000   0.000000   0.000000
    36  H    0.000000   0.000000   0.000001   0.000000   0.000000  -0.000003
              19         20         21         22         23         24
     1  C    0.000000   0.000000   0.000000   0.000000   0.000000   0.000000
     2  C    0.000003   0.000003   0.000000   0.000000   0.000000   0.000000
     3  H    0.000000   0.000000   0.000000   0.000000   0.000000   0.000000
     4  H    0.000000   0.000000   0.000000   0.000000   0.000000   0.000000
     5  H    0.000000   0.000000   0.000000   0.000000   0.000000   0.000000
     6  C    0.000373   0.000382   0.000008   0.000003   0.000003   0.000000
     7  H   -0.000012   0.000005   0.000000   0.000000   0.000000   0.000000
     8  H    0.000005  -0.000012   0.000000   0.000000   0.000000   0.000000
     9  C   -0.007052  -0.007040  -0.000458   0.000383   0.000390   0.000008
    10  H    0.000014  -0.000040   0.000000  -0.000012   0.000005   0.000000
    11  H   -0.000040   0.000014   0.000000   0.000005  -0.000012   0.000000
    12  C   -0.021156  -0.021102   0.008418  -0.007072  -0.007060  -0.000446
    13  H    0.007763  -0.002002   0.000003   0.000014  -0.000040   0.000000
    14  H   -0.001989   0.007756   0.000003  -0.000040   0.000014   0.000000
    15  C    0.372222   0.371896  -0.044674  -0.020811  -0.020629   0.008098
    16  H    0.009330  -0.011861   0.000398   0.007753  -0.002005   0.000003
    17  H   -0.011879   0.009330   0.000394  -0.001987   0.007750   0.000002
    18  C   -0.021465  -0.021608   0.371783   0.372336   0.371304  -0.046564
    19  H    0.693729  -0.035975  -0.007229   0.009296  -0.011824   0.000395
    20  H   -0.035975   0.694325  -0.007081  -0.011845   0.009328   0.000413
    21  C   -0.007229  -0.007081   4.735824  -0.022310  -0.021661   0.367632
    22  H    0.009296  -0.011845  -0.022310   0.692529  -0.035691  -0.006538
    23  H   -0.011824   0.009328  -0.021661  -0.035691   0.692545  -0.006203
    24  C    0.000395   0.000413   0.367632  -0.006538  -0.006203   4.770954
    25  H    0.007706  -0.001963   0.370698   0.009261  -0.011702  -0.019532
    26  H   -0.001976   0.007664   0.373662  -0.011755   0.009182  -0.024210
    27  C    0.000001   0.000004  -0.048678   0.000317   0.000419   0.434818
    28  H    0.000012  -0.000046  -0.018499   0.007561  -0.002070   0.369373
    29  H   -0.000031   0.000003  -0.018374  -0.002141   0.006877   0.355986
    30  C    0.000000   0.000000   0.008909  -0.000007  -0.000030  -0.062944
    31  H   -0.000012   0.000003  -0.002897   0.000008  -0.000062  -0.035391
    32  H    0.000006  -0.000018  -0.009254  -0.000077  -0.000018  -0.024633
    33  C    0.000000   0.000000   0.000291   0.000000  -0.000008  -0.008008
    34  H    0.000000   0.000000  -0.000057   0.000000   0.000002   0.000596
    35  H    0.000000   0.000000   0.000030   0.000000   0.000000  -0.000284
    36  H    0.000000   0.000000   0.000912  -0.000012  -0.000004  -0.014200
              25         26         27         28         29         30
     1  C    0.000000   0.000000   0.000000   0.000000   0.000000   0.000000
     2  C    0.000000   0.000000   0.000000   0.000000   0.000000   0.000000
     3  H    0.000000   0.000000   0.000000   0.000000   0.000000   0.000000
     4  H    0.000000   0.000000   0.000000   0.000000   0.000000   0.000000
     5  H    0.000000   0.000000   0.000000   0.000000   0.000000   0.000000
     6  C    0.000000   0.000000   0.000000   0.000000   0.000000   0.000000
     7  H    0.000000   0.000000   0.000000   0.000000   0.000000   0.000000
     8  H    0.000000   0.000000   0.000000   0.000000   0.000000   0.000000
     9  C    0.000002   0.000002   0.000000   0.000000   0.000000   0.000000
    10  H    0.000000   0.000000   0.000000   0.000000   0.000000   0.000000
    11  H    0.000000   0.000000   0.000000   0.000000   0.000000   0.000000
    12  C    0.000387   0.000382   0.000007  -0.000001  -0.000003   0.000000
    13  H   -0.000012   0.000005   0.000000   0.000000   0.000000   0.000000
    14  H    0.000005  -0.000012   0.000000   0.000000   0.000000   0.000000
    15  C   -0.007217  -0.006922  -0.000429   0.000459   0.000419   0.000007
    16  H    0.000014  -0.000039   0.000000  -0.000012   0.000006   0.000000
    17  H   -0.000040   0.000014   0.000000   0.000005  -0.000012   0.000000
    18  C   -0.020279  -0.021224   0.008133  -0.006898  -0.006310  -0.000309
    19  H    0.007706  -0.001976   0.000001   0.000012  -0.000031   0.000000
    20  H   -0.001963   0.007664   0.000004  -0.000046   0.000003   0.000000
    21  C    0.370698   0.373662  -0.048678  -0.018499  -0.018374   0.008909
    22  H    0.009261  -0.011755   0.000317   0.007561  -0.002141  -0.000007
    23  H   -0.011702   0.009182   0.000419  -0.002070   0.006877  -0.000030
    24  C   -0.019532  -0.024210   0.434818   0.369373   0.355986  -0.062944
    25  H    0.688646  -0.035542  -0.006366   0.009079  -0.012320   0.000097
    26  H   -0.035542   0.688368  -0.006001  -0.011684   0.009490   0.000548
    27  C   -0.006366  -0.006001   4.815016  -0.029585  -0.044227   0.358119
    28  H    0.009079  -0.011684  -0.029585   0.683153  -0.033918  -0.002275
    29  H   -0.012320   0.009490  -0.044227  -0.033918   0.694987   0.015546
    30  C    0.000097   0.000548   0.358119  -0.002275   0.015546   4.994920
    31  H    0.007115  -0.001805   0.360538   0.009388  -0.008443  -0.023924
    32  H   -0.002440   0.009200   0.298532  -0.009563   0.012207  -0.024379
    33  C   -0.000013   0.000007  -0.109951   0.000254   0.003769   0.527220
    34  H    0.000010  -0.000002   0.015462  -0.000076  -0.001293  -0.036362
    35  H   -0.000007   0.000003  -0.015150   0.000033   0.000254  -0.049362
    36  H   -0.000006   0.000014  -0.075782   0.007819   0.001337   0.390610
              31         32         33         34         35         36
     1  C    0.000000   0.000000   0.000000   0.000000   0.000000   0.000000
     2  C    0.000000   0.000000   0.000000   0.000000   0.000000   0.000000
     3  H    0.000000   0.000000   0.000000   0.000000   0.000000   0.000000
     4  H    0.000000   0.000000   0.000000   0.000000   0.000000   0.000000
     5  H    0.000000   0.000000   0.000000   0.000000   0.000000   0.000000
     6  C    0.000000   0.000000   0.000000   0.000000   0.000000   0.000000
     7  H    0.000000   0.000000   0.000000   0.000000   0.000000   0.000000
     8  H    0.000000   0.000000   0.000000   0.000000   0.000000   0.000000
     9  C    0.000000   0.000000   0.000000   0.000000   0.000000   0.000000
    10  H    0.000000   0.000000   0.000000   0.000000   0.000000   0.000000
    11  H    0.000000   0.000000   0.000000   0.000000   0.000000   0.000000
    12  C    0.000000   0.000000   0.000000   0.000000   0.000000   0.000000
    13  H    0.000000   0.000000   0.000000   0.000000   0.000000   0.000000
    14  H    0.000000   0.000000   0.000000   0.000000   0.000000   0.000000
    15  C    0.000018  -0.000006   0.000000   0.000000   0.000000   0.000001
    16  H    0.000000   0.000000   0.000000   0.000000   0.000000   0.000000
    17  H    0.000000   0.000000   0.000000   0.000000   0.000000   0.000000
    18  C    0.000328   0.000678   0.000007  -0.000002   0.000000  -0.000003
    19  H   -0.000012   0.000006   0.000000   0.000000   0.000000   0.000000
    20  H    0.000003  -0.000018   0.000000   0.000000   0.000000   0.000000
    21  C   -0.002897  -0.009254   0.000291  -0.000057   0.000030   0.000912
    22  H    0.000008  -0.000077   0.000000   0.000000   0.000000  -0.000012
    23  H   -0.000062  -0.000018  -0.000008   0.000002   0.000000  -0.000004
    24  C   -0.035391  -0.024633  -0.008008   0.000596  -0.000284  -0.014200
    25  H    0.007115  -0.002440  -0.000013   0.000010  -0.000007  -0.000006
    26  H   -0.001805   0.009200   0.000007  -0.000002   0.000003   0.000014
    27  C    0.360538   0.298532  -0.109951   0.015462  -0.015150  -0.075782
    28  H    0.009388  -0.009563   0.000254  -0.000076   0.000033   0.007819
    29  H   -0.008443   0.012207   0.003769  -0.001293   0.000254   0.001337
    30  C   -0.023924  -0.024379   0.527220  -0.036362  -0.049362   0.390610
    31  H    0.675681  -0.020502   0.005988  -0.001505   0.003306   0.009955
    32  H   -0.020502   0.727568   0.014863  -0.001096   0.002011   0.006139
    33  C    0.005988   0.014863   5.050961   0.379408   0.391705  -0.061847
    34  H   -0.001505  -0.001096   0.379408   0.634417  -0.051082  -0.008680
    35  H    0.003306   0.002011   0.391705  -0.051082   0.637275   0.012512
    36  H    0.009955   0.006139  -0.061847  -0.008680   0.012512   0.680829
 Mulliken charges:
               1
     1  C   -0.053538
     2  C   -0.078751
     3  H    0.035267
     4  H    0.032982
     5  H    0.032905
     6  C   -0.057806
     7  H    0.027044
     8  H    0.026987
     9  C   -0.036909
    10  H    0.019551
    11  H    0.019661
    12  C   -0.037612
    13  H    0.018689
    14  H    0.018565
    15  C   -0.037976
    16  H    0.018918
    17  H    0.019142
    18  C   -0.038200
    19  H    0.019784
    20  H    0.019471
    21  C   -0.037794
    22  H    0.020830
    23  H    0.021199
    24  C   -0.059326
    25  H    0.024419
    26  H    0.022632
    27  C    0.044801
    28  H    0.027490
    29  H    0.026189
    30  C   -0.096385
    31  H    0.022213
    32  H    0.020781
    33  C   -0.194647
    34  H    0.070262
    35  H    0.068757
    36  H    0.050405
 Sum of Mulliken charges =   0.00000
 Mulliken charges with hydrogens summed into heavy atoms:
               1
     1  C    0.047617
     2  C   -0.024720
     6  C   -0.018595
     9  C    0.000344
    12  C    0.000448
    15  C    0.001280
    18  C    0.003829
    21  C    0.009257
    24  C   -0.005646
    27  C    0.087795
    30  C   -0.045980
    33  C   -0.055629
 Electronic spatial extent (au):  <R**2>=           6925.3872
 Charge=              0.0000 electrons
 Dipole moment (field-independent basis, Debye):
    X=             -1.0406    Y=              0.2388    Z=             -0.3921  Tot=              1.1373
 Quadrupole moment (field-independent basis, Debye-Ang):
   XX=            -90.4462   YY=            -81.5632   ZZ=            -78.6315
   XY=              1.3639   XZ=             -2.5376   YZ=             -0.7074
 Traceless Quadrupole moment (field-independent basis, Debye-Ang):
   XX=             -6.8992   YY=              1.9837   ZZ=              4.9155
   XY=              1.3639   XZ=             -2.5376   YZ=             -0.7074
 Octapole moment (field-independent basis, Debye-Ang**2):
  XXX=            -70.1483  YYY=              0.9580  ZZZ=             -1.5518  XYY=             -6.2026
  XXY=             18.5509  XXZ=            -15.6953  XZZ=             -2.5216  YZZ=             -1.4129
  YYZ=              0.5217  XYZ=             -2.4623
 Hexadecapole moment (field-independent basis, Debye-Ang**3):
 XXXX=          -9870.4690 YYYY=           -281.4958 ZZZZ=           -190.4214 XXXY=             92.7425
 XXXZ=           -100.8346 YYYX=              7.1869 YYYZ=             -3.7439 ZZZX=             -9.2898
 ZZZY=             -0.7783 XXYY=          -1630.9025 XXZZ=          -1554.0504 YYZZ=            -73.1967
 XXYZ=            -19.6486 YYXZ=              1.4711 ZZXY=             -7.1110
 N-N= 6.546599883033D+02 E-N=-2.395414805403D+03  KE= 4.651966199656D+02
   1 Symmetry operations used in ECPInt.
 ECPInt:  NShTT=   10440 NPrTT=   35208 LenC2=    8759 LenP2D=   21882.
 LDataN:  DoStor=T MaxTD1= 5 Len=  102
 Calling FoFJK, ICntrl=      2127 FMM=F ISym2X=0 I1Cent= 0 IOpClX= 0 NMat=1 NMatS=1 NMatT=0.
 ***** Axes restored to original set *****
 -------------------------------------------------------------------
 Center     Atomic                   Forces (Hartrees/Bohr)
 Number     Number              X              Y              Z
 -------------------------------------------------------------------
      1        6           0.005877596    0.000007885    0.008755959
      2        6          -0.015516182   -0.000015733   -0.013094760
      3        1           0.003352050   -0.000001200   -0.004670441
      4        1          -0.002692892    0.003580829   -0.002779068
      5        1          -0.002695088   -0.003589226   -0.002779731
      6        6           0.021395941    0.000037782    0.014406385
      7        1           0.003033886    0.003843589    0.004286922
      8        1           0.003046360   -0.003838069    0.004284445
      9        6          -0.021421442   -0.000059579   -0.014494350
     10        1          -0.003898917   -0.004380202   -0.002725187
     11        1          -0.003903644    0.004364620   -0.002733678
     12        6           0.021233378    0.000094319    0.014546064
     13        1           0.003868487    0.004290451    0.002622435
     14        1           0.003897569   -0.004269810    0.002625030
     15        6          -0.021117733   -0.000125664   -0.013907921
     16        1          -0.003892419   -0.004306191   -0.002618199
     17        1          -0.003904653    0.004266033   -0.002639841
     18        6           0.019226029    0.000366902    0.014465972
     19        1           0.003852058    0.004279836    0.002620159
     20        1           0.003908545   -0.004238350    0.002639509
     21        6          -0.018512988   -0.000034316   -0.010278501
     22        1          -0.003827337   -0.004268388   -0.002652391
     23        1          -0.003848947    0.004185112   -0.002738992
     24        6           0.009098738   -0.000502917    0.008395329
     25        1           0.003894680    0.004123240    0.002556638
     26        1           0.003769729   -0.003975782    0.002714408
     27        6           0.003942694   -0.027122190    0.036825725
     28        1          -0.003619767   -0.003391216   -0.001896301
     29        1          -0.004076684    0.003732217   -0.001934235
     30        6           0.032985240   -0.027570254   -0.033998567
     31        1           0.000338016    0.003998192    0.002445934
     32        1           0.014053706   -0.009073089   -0.005334170
     33        6          -0.020868953    0.038601289    0.030285696
     34        1          -0.050849321   -0.014616206    0.003863092
     35        1           0.042351259    0.030694025    0.009962961
     36        1          -0.018478995    0.004912060   -0.047026330
 -------------------------------------------------------------------
 Cartesian Forces:  Max     0.050849321 RMS     0.014131795
 -----------------------------------------------------------------------------------------------
                       Internal Coordinate Forces (Hartree/Bohr or radian)
  Cent   Atom   N1       Length/X         N2         Alpha/Y        N3         Beta/Z          J
 -----------------------------------------------------------------------------------------------
      1  C 
      2  C        1   0.001473(     1)
      3  H        1   0.004762(     2)      2   0.006661(    36)
      4  H        1   0.005146(     3)      2   0.002072(    37)      3  -0.001085(    70)     0
      5  H        1   0.005154(     4)      2   0.002066(    38)      3   0.001080(    71)     0
      6  C        2  -0.003008(     5)      1   0.010372(    39)      3  -0.000003(    72)     0
      7  H        2   0.006000(     6)      1   0.005086(    40)      3  -0.001127(    73)     0
      8  H        2   0.006001(     7)      1   0.005079(    41)      3   0.001146(    74)     0
      9  C        6  -0.002974(     8)      2   0.011501(    42)      1  -0.000035(    75)     0
     10  H        6   0.006347(     9)      2   0.001111(    43)      1  -0.002172(    76)     0
     11  H        6   0.006343(    10)      2   0.001109(    44)      1   0.002174(    77)     0
     12  C        9  -0.002956(    11)      6   0.011571(    45)      2  -0.000016(    78)     0
     13  H        9   0.006225(    12)      6   0.001218(    46)      2  -0.002101(    79)     0
     14  H        9   0.006228(    13)      6   0.001199(    47)      2   0.002127(    80)     0
     15  C       12  -0.003013(    14)      9   0.011389(    48)      6  -0.000039(    81)     0
     16  H       12   0.006246(    15)      9   0.001268(    49)      6  -0.002108(    82)     0
     17  H       12   0.006236(    16)      9   0.001259(    50)      6   0.002104(    83)     0
     18  C       15  -0.003118(    17)     12   0.011064(    51)      9  -0.000036(    84)     0
     19  H       15   0.006204(    18)     12   0.001245(    52)      9  -0.002111(    85)     0
     20  H       15   0.006217(    19)     12   0.001221(    53)      9   0.002151(    86)     0
     21  C       18  -0.003435(    20)     15   0.009873(    54)     12  -0.000144(    87)     0
     22  H       18   0.006191(    21)     15   0.001159(    55)     12  -0.002190(    88)     0
     23  H       18   0.006180(    22)     15   0.001097(    56)     12   0.002274(    89)     0
     24  C       21  -0.003954(    23)     18   0.007435(    57)     15   0.000211(    90)     0
     25  H       21   0.006074(    24)     18   0.001220(    58)     15  -0.002369(    91)     0
     26  H       21   0.005966(    25)     18   0.001551(    59)     15   0.002163(    92)     0
     27  C       24  -0.002964(    26)     21   0.003467(    60)     18   0.000346(    93)     0
     28  H       24   0.005130(    27)     21   0.002148(    61)     18  -0.001758(    94)     0
     29  H       24   0.005661(    28)     21   0.002602(    62)     18   0.001594(    95)     0
     30  C       27  -0.000123(    29)     24  -0.026190(    63)     21  -0.019055(    96)     0
     31  H       27   0.004182(    30)     24   0.002345(    64)     21   0.003554(    97)     0
     32  H       27   0.012299(    31)     24  -0.020953(    65)     21   0.014428(    98)     0
     33  C       30   0.076130(    32)     27   0.001821(    66)     24   0.096893(    99)     0
     34  H       33   0.012668(    33)     30   0.011462(    67)     27   0.089323(   100)     0
     35  H       33   0.013577(    34)     30   0.010632(    68)     27   0.090320(   101)     0
     36  H       30   0.016312(    35)     27  -0.017280(    69)     24  -0.086803(   102)     0
 -----------------------------------------------------------------------------------------------
 Internal  Forces:  Max     0.096892605 RMS     0.020684232

 GradGradGradGradGradGradGradGradGradGradGradGradGradGradGradGradGradGrad
 Berny optimization.
 Search for a local minimum.
 Step number   1 out of a maximum of  200
 All quantities printed in internal units (Hartrees-Bohrs-Radians)
 Second derivative matrix not updated -- first step.
 ITU=  0
     Eigenvalues ---    0.01014   0.01016   0.01028   0.01028   0.01028
     Eigenvalues ---    0.01031   0.01037   0.01071   0.01312   0.01975
     Eigenvalues ---    0.08427   0.13370   0.15083   0.15093   0.15113
     Eigenvalues ---    0.15114   0.15115   0.15120   0.15129   0.15296
     Eigenvalues ---    0.15820   0.16000   0.17237   0.17291   0.17292
     Eigenvalues ---    0.17292   0.17293   0.17293   0.17306   0.17324
     Eigenvalues ---    0.17543   0.19882   0.20945   0.23861   0.29418
     Eigenvalues ---    0.29426   0.29460   0.29461   0.29462   0.29462
     Eigenvalues ---    0.29463   0.29566   0.30331   0.32194   0.33834
     Eigenvalues ---    0.33966   0.33967   0.34027   0.34033   0.34033
     Eigenvalues ---    0.34036   0.34036   0.34037   0.34037   0.34037
     Eigenvalues ---    0.34037   0.34037   0.34037   0.34037   0.34037
     Eigenvalues ---    0.34064   0.34104   0.34104   0.34276   0.34277
     Eigenvalues ---    0.34299   0.35012   0.35313   0.35332   0.36582
     Eigenvalues ---    0.36627   0.36659   0.36681   0.36682   0.36682
     Eigenvalues ---    0.36686   0.36694   0.37162   0.39241   0.39324
     Eigenvalues ---    0.39326   0.39326   0.39328   0.39332   0.39340
     Eigenvalues ---    0.39352   0.39413   0.39726   0.42862   0.42864
     Eigenvalues ---    0.42864   0.42864   0.42874   0.42884   0.42896
     Eigenvalues ---    0.42926   0.43148   0.48000   0.53123   0.57454
     Eigenvalues --- 1000.000001000.00000
 RFO step:  Lambda=-7.92614801D-02 EMin= 1.01431710D-02
 Linear search not attempted -- first point.
 Maximum step size (   0.300) exceeded in Quadratic search.
    -- Step size scaled by   0.597
 Variable       Old X    -DE/DX   Delta X   Delta X   Delta X     New X
                                 (Linear)    (Quad)   (Total)
    B1        2.87308   0.00147   0.00000   0.00230   0.00230   2.87538
    B2        2.06829   0.00476   0.00000   0.00674   0.00674   2.07502
    A2        1.92443   0.00666   0.00000   0.01333   0.01333   1.93775
    B3        2.06866   0.00515   0.00000   0.00728   0.00728   2.07595
    A3        1.93731   0.00207   0.00000   0.00111   0.00111   1.93842
    D3        4.19337  -0.00109   0.00000  -0.00378  -0.00378   4.18958
    B4        2.06865   0.00515   0.00000   0.00730   0.00730   2.07594
    A4        1.93737   0.00207   0.00000   0.00103   0.00103   1.93840
    D4        2.08990   0.00108   0.00000   0.00351   0.00351   2.09341
    B5        2.88837  -0.00301   0.00000  -0.00479  -0.00479   2.88358
    A5        1.94593   0.01037   0.00000   0.01471   0.01471   1.96064
    D5        3.14200   0.00000   0.00000   0.00216   0.00216   3.14417
    B6        2.07156   0.00600   0.00000   0.00853   0.00853   2.08008
    A6        1.90492   0.00509   0.00000   0.00585   0.00585   1.91078
    D6        1.02042  -0.00113   0.00000  -0.00168  -0.00168   1.01874
    B7        2.07156   0.00600   0.00000   0.00853   0.00853   2.08009
    A7        1.90497   0.00508   0.00000   0.00569   0.00569   1.91066
    D7        5.26348   0.00115   0.00000   0.00420   0.00420   5.26769
    B8        2.89047  -0.00297   0.00000  -0.00475  -0.00475   2.88572
    A8        1.94309   0.01150   0.00000   0.01827   0.01827   1.96136
    D8        3.14277  -0.00004   0.00000   0.00489   0.00489   3.14766
    B9        2.07275   0.00635   0.00000   0.00904   0.00904   2.08178
    A9        1.91232   0.00111   0.00000  -0.00124  -0.00124   1.91108
    D9        1.02439  -0.00217   0.00000  -0.00367  -0.00367   1.02071
   B10        2.07275   0.00634   0.00000   0.00903   0.00903   2.08178
   A10        1.91235   0.00111   0.00000  -0.00215  -0.00215   1.91020
   D10        5.26097   0.00217   0.00000   0.00869   0.00869   5.26967
   B11        2.89051  -0.00296   0.00000  -0.00472  -0.00472   2.88578
   A11        1.94306   0.01157   0.00000   0.01914   0.01914   1.96220
   D11        3.14246  -0.00002   0.00000   0.00205   0.00205   3.14451
   B12        2.07269   0.00622   0.00000   0.00886   0.00886   2.08155
   A12        1.91222   0.00122   0.00000  -0.00157  -0.00157   1.91065
[...]
     4  H   -0.009884   0.008647   0.000443  -0.001914   0.007731  -0.000007
     5  H    0.008648  -0.009885   0.000443   0.007723  -0.001918  -0.000007
     6  C   -0.024743  -0.024687   0.366784   0.372499   0.372617  -0.039170
     7  H    0.692640  -0.036015  -0.007338   0.009822  -0.011991   0.000335
     8  H   -0.036015   0.692746  -0.007346  -0.012024   0.009819   0.000332
     9  C   -0.007338  -0.007346   4.747168  -0.021984  -0.021992   0.368843
    10  H    0.009822  -0.012024  -0.021984   0.699847  -0.038185  -0.007516
    11  H   -0.011991   0.009819  -0.021992  -0.038185   0.699620  -0.007520
    12  C    0.000335   0.000332   0.368843  -0.007516  -0.007520   4.742413
    13  H    0.008377  -0.002086   0.370326   0.009702  -0.012043  -0.022455
    14  H   -0.002092   0.008372   0.370165  -0.012032   0.009704  -0.022372
    15  C    0.000004   0.000004  -0.040839   0.000406   0.000403   0.372662
    16  H    0.000020  -0.000042  -0.022693   0.008122  -0.002022   0.369869
    17  H   -0.000042   0.000020  -0.022749  -0.002027   0.008125   0.370050
    18  C    0.000000   0.000000   0.007958   0.000001   0.000001  -0.042366
    19  H   -0.000011   0.000004  -0.007085   0.000018  -0.000041  -0.022488
    20  H    0.000004  -0.000011  -0.007103  -0.000041   0.000018  -0.022425
    21  C    0.000000   0.000000  -0.000409   0.000000   0.000000   0.008009
    22  H    0.000000   0.000000   0.000357  -0.000011   0.000005  -0.007125
    23  H    0.000000   0.000000   0.000339   0.000005  -0.000011  -0.006996
    24  C    0.000000   0.000000   0.000006   0.000000   0.000000  -0.000391
    25  H    0.000000   0.000000   0.000003   0.000000   0.000000   0.000361
    26  H    0.000000   0.000000   0.000002   0.000000   0.000000   0.000327
    27  C    0.000000   0.000000   0.000000   0.000000   0.000000   0.000006
    28  H    0.000000   0.000000   0.000000   0.000000   0.000000   0.000000
    29  H    0.000000   0.000000   0.000000   0.000000   0.000000  -0.000008
    30  C    0.000000   0.000000   0.000000   0.000000   0.000000   0.000000
    31  H    0.000000   0.000000   0.000000   0.000000   0.000000   0.000000
    32  H    0.000000   0.000000   0.000000   0.000000   0.000000   0.000000
    33  C    0.000000   0.000000   0.000000   0.000000   0.000000   0.000000
    34  H    0.000000   0.000000   0.000000   0.000000   0.000000   0.000000
    35  H    0.000000   0.000000   0.000000   0.000000   0.000000   0.000000
    36  H    0.000000   0.000000   0.000000   0.000000   0.000000   0.000000
              13         14         15         16         17         18
     1  C    0.000270   0.000272   0.000007   0.000007   0.000007   0.000000
     2  C   -0.006688  -0.006677  -0.000378   0.000290   0.000294   0.000006
     3  H    0.000008   0.000008   0.000000   0.000000   0.000000   0.000000
     4  H   -0.000050   0.000025   0.000000   0.000003  -0.000009   0.000000
     5  H    0.000025  -0.000051   0.000000  -0.000009   0.000003   0.000000
     6  C   -0.023484  -0.023482   0.007684  -0.007055  -0.007047  -0.000404
     7  H    0.008377  -0.002092   0.000004   0.000020  -0.000042   0.000000
     8  H   -0.002086   0.008372   0.000004  -0.000042   0.000020   0.000000
     9  C    0.370326   0.370165  -0.040839  -0.022693  -0.022749   0.007958
    10  H    0.009702  -0.012032   0.000406   0.008122  -0.002027   0.000001
    11  H   -0.012043   0.009704   0.000403  -0.002022   0.008125   0.000001
    12  C   -0.022455  -0.022372   0.372662   0.369869   0.370050  -0.042366
    13  H    0.698945  -0.037410  -0.007310   0.009645  -0.011990   0.000368
    14  H   -0.037410   0.699242  -0.007327  -0.012034   0.009642   0.000366
    15  C   -0.007310  -0.007327   4.738508  -0.022276  -0.022354   0.373292
    16  H    0.009645  -0.012034  -0.022276   0.698721  -0.037280  -0.007356
    17  H   -0.011990   0.009642  -0.022354  -0.037280   0.698269  -0.007276
    18  C    0.000368   0.000366   0.373292  -0.007356  -0.007276   4.737298
    19  H    0.008175  -0.002021   0.370290   0.009618  -0.012000  -0.022672
    20  H   -0.002027   0.008168   0.369886  -0.012031   0.009629  -0.022532
    21  C    0.000003   0.000004  -0.040784   0.000372   0.000370   0.370977
    22  H    0.000019  -0.000041  -0.022059   0.008172  -0.002019   0.370291
    23  H   -0.000040   0.000019  -0.022098  -0.002006   0.008116   0.370394
    24  C    0.000000   0.000000   0.007324   0.000003   0.000004  -0.038203
    25  H   -0.000011   0.000005  -0.007118   0.000019  -0.000041  -0.021151
    26  H    0.000005  -0.000011  -0.007040  -0.000038   0.000018  -0.022889
    27  C    0.000000   0.000000  -0.000383   0.000000   0.000000   0.007889
    28  H    0.000000   0.000000   0.000487  -0.000011   0.000005  -0.006973
    29  H    0.000000   0.000000   0.000417   0.000005  -0.000010  -0.008396
    30  C    0.000000   0.000000   0.000008   0.000000   0.000000  -0.000409
    31  H    0.000000   0.000000   0.000019   0.000000   0.000000   0.000370
    32  H    0.000000   0.000000   0.000001   0.000000   0.000000   0.000114
    33  C    0.000000   0.000000   0.000000   0.000000   0.000000  -0.000009
    34  H    0.000000   0.000000   0.000000   0.000000   0.000000   0.000001
    35  H    0.000000   0.000000   0.000000   0.000000   0.000000   0.000000
    36  H    0.000000   0.000000   0.000003   0.000000   0.000000  -0.000061
              19         20         21         22         23         24
     1  C    0.000000   0.000000   0.000000   0.000000   0.000000   0.000000
     2  C    0.000003   0.000003   0.000000   0.000000   0.000000   0.000000
     3  H    0.000000   0.000000   0.000000   0.000000   0.000000   0.000000
     4  H    0.000000   0.000000   0.000000   0.000000   0.000000   0.000000
     5  H    0.000000   0.000000   0.000000   0.000000   0.000000   0.000000
     6  C    0.000346   0.000347   0.000007   0.000003   0.000004   0.000000
     7  H   -0.000011   0.000004   0.000000   0.000000   0.000000   0.000000
     8  H    0.000004  -0.000011   0.000000   0.000000   0.000000   0.000000
     9  C   -0.007085  -0.007103  -0.000409   0.000357   0.000339   0.000006
    10  H    0.000018  -0.000041   0.000000  -0.000011   0.000005   0.000000
    11  H   -0.000041   0.000018   0.000000   0.000005  -0.000011   0.000000
    12  C   -0.022488  -0.022425   0.008009  -0.007125  -0.006996  -0.000391
    13  H    0.008175  -0.002027   0.000003   0.000019  -0.000040   0.000000
    14  H   -0.002021   0.008168   0.000004  -0.000041   0.000019   0.000000
    15  C    0.370290   0.369886  -0.040784  -0.022059  -0.022098   0.007324
    16  H    0.009618  -0.012031   0.000372   0.008172  -0.002006   0.000003
    17  H   -0.012000   0.009629   0.000370  -0.002019   0.008116   0.000004
    18  C   -0.022672  -0.022532   0.370977   0.370291   0.370394  -0.038203
    19  H    0.697600  -0.037198  -0.007272   0.009588  -0.012008   0.000394
    20  H   -0.037198   0.698511  -0.007373  -0.011947   0.009568   0.000386
    21  C   -0.007272  -0.007373   4.750637  -0.022800  -0.022748   0.350852
    22  H    0.009588  -0.011947  -0.022800   0.696624  -0.036971  -0.007033
    23  H   -0.012008   0.009568  -0.022748  -0.036971   0.695575  -0.007081
    24  C    0.000394   0.000386   0.350852  -0.007033  -0.007081   4.808389
    25  H    0.008162  -0.002026   0.370282   0.009485  -0.011871  -0.020682
    26  H   -0.001998   0.008075   0.370677  -0.012105   0.009594  -0.024302
    27  C   -0.000002   0.000005  -0.045777   0.000271   0.000419   0.421602
    28  H    0.000016  -0.000044  -0.017374   0.007899  -0.002068   0.364935
    29  H   -0.000037   0.000014  -0.018940  -0.001985   0.007659   0.372963
    30  C    0.000000   0.000000   0.009123  -0.000006  -0.000010  -0.051433
    31  H   -0.000015   0.000005  -0.001395   0.000006  -0.000040  -0.041613
    32  H    0.000005  -0.000011  -0.009676  -0.000034   0.000012  -0.015246
    33  C    0.000000   0.000000   0.000167   0.000001  -0.000004  -0.005190
    34  H    0.000000   0.000000  -0.000076   0.000001   0.000000   0.001415
    35  H    0.000000   0.000000   0.000034   0.000000   0.000000  -0.000740
    36  H    0.000000   0.000000   0.003080  -0.000042   0.000010  -0.032993
              25         26         27         28         29         30
     1  C    0.000000   0.000000   0.000000   0.000000   0.000000   0.000000
     2  C    0.000000   0.000000   0.000000   0.000000   0.000000   0.000000
     3  H    0.000000   0.000000   0.000000   0.000000   0.000000   0.000000
     4  H    0.000000   0.000000   0.000000   0.000000   0.000000   0.000000
     5  H    0.000000   0.000000   0.000000   0.000000   0.000000   0.000000
     6  C    0.000000   0.000000   0.000000   0.000000   0.000000   0.000000
     7  H    0.000000   0.000000   0.000000   0.000000   0.000000   0.000000
     8  H    0.000000   0.000000   0.000000   0.000000   0.000000   0.000000
     9  C    0.000003   0.000002   0.000000   0.000000   0.000000   0.000000
    10  H    0.000000   0.000000   0.000000   0.000000   0.000000   0.000000
    11  H    0.000000   0.000000   0.000000   0.000000   0.000000   0.000000
    12  C    0.000361   0.000327   0.000006   0.000000  -0.000008   0.000000
    13  H   -0.000011   0.000005   0.000000   0.000000   0.000000   0.000000
    14  H    0.000005  -0.000011   0.000000   0.000000   0.000000   0.000000
    15  C   -0.007118  -0.007040  -0.000383   0.000487   0.000417   0.000008
    16  H    0.000019  -0.000038   0.000000  -0.000011   0.000005   0.000000
    17  H   -0.000041   0.000018   0.000000   0.000005  -0.000010   0.000000
    18  C   -0.021151  -0.022889   0.007889  -0.006973  -0.008396  -0.000409
    19  H    0.008162  -0.001998  -0.000002   0.000016  -0.000037   0.000000
    20  H   -0.002026   0.008075   0.000005  -0.000044   0.000014   0.000000
    21  C    0.370282   0.370677  -0.045777  -0.017374  -0.018940   0.009123
    22  H    0.009485  -0.012105   0.000271   0.007899  -0.001985  -0.000006
    23  H   -0.011871   0.009594   0.000419  -0.002068   0.007659  -0.000010
    24  C   -0.020682  -0.024302   0.421602   0.364935   0.372963  -0.051433
    25  H    0.690406  -0.036994  -0.007512   0.009145  -0.011984   0.000273
    26  H   -0.036994   0.697333  -0.006272  -0.011192   0.009325   0.000828
    27  C   -0.007512  -0.006272   4.728856  -0.025048  -0.037969   0.346931
    28  H    0.009145  -0.011192  -0.025048   0.687770  -0.034679  -0.006836
    29  H   -0.011984   0.009325  -0.037969  -0.034679   0.678231   0.005349
    30  C    0.000273   0.000828   0.346931  -0.006836   0.005349   4.806507
    31  H    0.007800  -0.002156   0.363828   0.009734  -0.009672  -0.039106
    32  H   -0.001865   0.008357   0.333453  -0.012667   0.009844   0.010476
    33  C   -0.000001   0.000023  -0.080086  -0.001777   0.006201   0.691569
    34  H    0.000001   0.000000   0.005336  -0.000552  -0.000086  -0.012790
    35  H   -0.000001   0.000000  -0.001552   0.000156  -0.000060  -0.040248
    36  H    0.000026  -0.000165  -0.043162   0.015268  -0.003301   0.310856
              31         32         33         34         35         36
     1  C    0.000000   0.000000   0.000000   0.000000   0.000000   0.000000
     2  C    0.000000   0.000000   0.000000   0.000000   0.000000   0.000000
     3  H    0.000000   0.000000   0.000000   0.000000   0.000000   0.000000
     4  H    0.000000   0.000000   0.000000   0.000000   0.000000   0.000000
     5  H    0.000000   0.000000   0.000000   0.000000   0.000000   0.000000
     6  C    0.000000   0.000000   0.000000   0.000000   0.000000   0.000000
     7  H    0.000000   0.000000   0.000000   0.000000   0.000000   0.000000
     8  H    0.000000   0.000000   0.000000   0.000000   0.000000   0.000000
     9  C    0.000000   0.000000   0.000000   0.000000   0.000000   0.000000
    10  H    0.000000   0.000000   0.000000   0.000000   0.000000   0.000000
    11  H    0.000000   0.000000   0.000000   0.000000   0.000000   0.000000
    12  C    0.000000   0.000000   0.000000   0.000000   0.000000   0.000000
    13  H    0.000000   0.000000   0.000000   0.000000   0.000000   0.000000
    14  H    0.000000   0.000000   0.000000   0.000000   0.000000   0.000000
    15  C    0.000019   0.000001   0.000000   0.000000   0.000000   0.000003
    16  H    0.000000   0.000000   0.000000   0.000000   0.000000   0.000000
    17  H    0.000000   0.000000   0.000000   0.000000   0.000000   0.000000
    18  C    0.000370   0.000114  -0.000009   0.000001   0.000000  -0.000061
    19  H   -0.000015   0.000005   0.000000   0.000000   0.000000   0.000000
    20  H    0.000005  -0.000011   0.000000   0.000000   0.000000   0.000000
    21  C   -0.001395  -0.009676   0.000167  -0.000076   0.000034   0.003080
    22  H    0.000006  -0.000034   0.000001   0.000001   0.000000  -0.000042
    23  H   -0.000040   0.000012  -0.000004   0.000000   0.000000   0.000010
    24  C   -0.041613  -0.015246  -0.005190   0.001415  -0.000740  -0.032993
    25  H    0.007800  -0.001865  -0.000001   0.000001  -0.000001   0.000026
    26  H   -0.002156   0.008357   0.000023   0.000000   0.000000  -0.000165
    27  C    0.363828   0.333453  -0.080086   0.005336  -0.001552  -0.043162
    28  H    0.009734  -0.012667  -0.001777  -0.000552   0.000156   0.015268
    29  H   -0.009672   0.009844   0.006201  -0.000086  -0.000060  -0.003301
    30  C   -0.039106   0.010476   0.691569  -0.012790  -0.040248   0.310856
    31  H    0.703315  -0.034431  -0.002753  -0.000708   0.001952   0.016782
    32  H   -0.034431   0.684585   0.009299   0.000019  -0.000352  -0.020280
    33  C   -0.002753   0.009299   4.853941   0.399262   0.363372  -0.050667
    34  H   -0.000708   0.000019   0.399262   0.658727  -0.059377  -0.047283
    35  H    0.001952  -0.000352   0.363372  -0.059377   0.678831   0.017894
    36  H    0.016782  -0.020280  -0.050667  -0.047283   0.017894   0.813918
 Mulliken charges:
               1
     1  C   -0.062157
     2  C   -0.077931
     3  H    0.039470
     4  H    0.035237
     5  H    0.035171
     6  C   -0.062602
     7  H    0.028319
     8  H    0.028257
     9  C   -0.040211
    10  H    0.020499
    11  H    0.020622
    12  C   -0.039662
    13  H    0.019726
    14  H    0.019559
    15  C   -0.041440
    16  H    0.019989
    17  H    0.020290
    18  C   -0.038629
    19  H    0.020627
    20  H    0.020148
    21  C   -0.039968
    22  H    0.021456
    23  H    0.022240
    24  C   -0.083365
    25  H    0.025288
    26  H    0.020600
    27  C    0.039168
    28  H    0.023806
    29  H    0.037122
    30  C   -0.031082
    31  H    0.028079
    32  H    0.038398
    33  C   -0.183346
    34  H    0.056110
    35  H    0.040093
    36  H    0.020119
 Sum of Mulliken charges =   0.00000
 Mulliken charges with hydrogens summed into heavy atoms:
               1
     1  C    0.047721
     2  C   -0.021356
     6  C   -0.021481
     9  C   -0.000925
    12  C    0.000617
    15  C   -0.000665
    18  C    0.005067
    21  C    0.005920
    24  C   -0.022437
    27  C    0.105645
    30  C   -0.010963
    33  C   -0.087143
 Electronic spatial extent (au):  <R**2>=           6933.6248
 Charge=              0.0000 electrons
 Dipole moment (field-independent basis, Debye):
    X=             -1.0937    Y=              0.0154    Z=             -0.2814  Tot=              1.1295
 Quadrupole moment (field-independent basis, Debye-Ang):
   XX=            -91.0320   YY=            -80.3691   ZZ=            -79.5051
   XY=             -1.0715   XZ=             -1.0621   YZ=              0.1375
 Traceless Quadrupole moment (field-independent basis, Debye-Ang):
   XX=             -7.3966   YY=              3.2663   ZZ=              4.1303
   XY=             -1.0715   XZ=             -1.0621   YZ=              0.1375
 Octapole moment (field-independent basis, Debye-Ang**2):
  XXX=            -90.4172  YYY=             -1.3520  ZZZ=             -0.5057  XYY=              3.0239
  XXY=             -7.2859  XXZ=             -0.8570  XZZ=             -3.7990  YZZ=              0.5124
  YYZ=             -1.2649  XYZ=              1.8215
 Hexadecapole moment (field-independent basis, Debye-Ang**3):
 XXXX=          -9931.1484 YYYY=           -337.0998 ZZZZ=           -168.6379 XXXY=           -109.9628
 XXXZ=             29.1984 YYYX=             -9.5116 YYYZ=             -0.0667 ZZZX=             -1.6169
 ZZZY=              1.2675 XXYY=          -1581.0235 XXZZ=          -1565.5158 YYZZ=            -80.0552
 XXYZ=              6.9434 YYXZ=             -7.7515 ZZXY=              5.1172
 N-N= 6.532301045120D+02 E-N=-2.392194854480D+03  KE= 4.648391732836D+02
 1\1\GINC-NODE0233\POpt\RM06\def2SVP\C12H24\JGOODPAS\17-Oct-2017\1\\# O
 pt=(Z-mat,maxcycle=200) m06/def2svp Integral=SuperFineGrid\\C12H24\\0,
 1\C\C,1,B1\H,1,B2,2,A2\H,1,B3,2,A3,3,D3,0\H,1,B4,2,A4,3,D4,0\C,2,B5,1,
 A5,3,D5,0\H,2,B6,1,A6,3,D6,0\H,2,B7,1,A7,3,D7,0\C,6,B8,2,A8,1,D8,0\H,6
 ,B9,2,A9,1,D9,0\H,6,B10,2,A10,1,D10,0\C,9,B11,6,A11,2,D11,0\H,9,B12,6,
 A12,2,D12,0\H,9,B13,6,A13,2,D13,0\C,12,B14,9,A14,6,D14,0\H,12,B15,9,A1
 5,6,D15,0\H,12,B16,9,A16,6,D16,0\C,15,B17,12,A17,9,D17,0\H,15,B18,12,A
 18,9,D18,0\H,15,B19,12,A19,9,D19,0\C,18,B20,15,A20,12,D20,0\H,18,B21,1
 5,A21,12,D21,0\H,18,B22,15,A22,12,D22,0\C,21,B23,18,A23,15,D23,0\H,21,
 B24,18,A24,15,D24,0\H,21,B25,18,A25,15,D25,0\C,24,B26,21,A26,18,D26,0\
 H,24,B27,21,A27,18,D27,0\H,24,B28,21,A28,18,D28,0\C,27,B29,24,A29,21,D
 29,0\H,27,B30,24,A30,21,D30,0\H,27,B31,24,A31,21,D31,0\C,30,B32,27,A32
 ,24,D32,0\H,33,B33,30,A33,27,D33,0\H,33,B34,30,A34,27,D34,0\H,30,B35,2
 7,A35,24,D35,0\\B1=1.51594709\B2=1.10116833\A2=112.25966522\B3=1.10337
 637\A3=111.18904507\D3=239.57639532\B4=1.10337971\A4=111.19407729\D4=1
 20.43006552\B5=1.51874099\A5=113.11921111\D5=179.99270659\B6=1.1069094
 \A6=109.99650703\D6=57.74927292\B7=1.10690697\A7=110.00092659\D7=302.2
 4612048\B8=1.51751916\A8=113.75367692\D8=180.06130265\B9=1.10862592\A9
 =109.37441985\D9=57.40395839\B10=1.10861432\A10=109.37110135\D10=302.7
 0836946\B11=1.51766332\A11=113.74906484\D11=180.0198317\B12=1.10844529
 \A12=109.38742759\D12=57.40133864\B13=1.10845022\A13=109.39251557\D13=
 302.64949258\B14=1.51765639\A14=113.70962119\D14=180.07566484\B15=1.10
 839989\A15=109.40267244\D15=57.45529019\B16=1.10838629\A16=109.4018737
 6\D16=302.68569652\B17=1.51767043\A17=113.68864239\D17=179.97509238\B1
 8=1.1083367\A18=109.40017351\D18=57.3724076\B19=1.10839301\A19=109.402
 22456\D19=302.59446667\B20=1.51797597\A20=113.62305581\D20=179.9484565
 9\B21=1.10825254\A21=109.4044281\D21=57.31595786\B22=1.10821418\A22=10
 9.42464443\D22=302.49684623\B23=1.5180728\A23=113.2737723\D23=179.6775
 8845\B24=1.10769101\A24=109.36160685\D24=57.10086567\B25=1.10831381\A2
 5=109.44445539\D25=302.18068216\B26=1.52307506\A26=112.50277392\D26=17
 8.94913552\B27=1.10738672\A27=109.69809814\D27=56.63689572\B28=1.10624
 888\A28=109.96302663\D28=300.95216081\B29=1.51150202\A29=110.45500682\
 D29=179.73390693\B30=1.110142\A30=108.30906246\D30=53.00879074\B31=1.1
 0475715\A31=109.49239274\D31=298.76870072\B32=1.34734605\A32=156.30392
 806\D32=312.66641123\B33=1.09520589\A33=120.59755261\B34=1.1039941\A34
 =124.74194552\B35=1.12461874\A35=91.12150072\D35=59.30006266\D33=91.\D
 34=271.\\Version=ES64L-G09RevD.01\State=1-A\HF=-470.9077402\RMSD=4.447
 e-09\RMSF=1.057e-02\Dipole=0.2499014,-0.115742,-0.3487318\Quadrupole=0
 .5113785,3.0281124,-3.5394909,0.599734,3.520922,-0.5626952\PG=C01 [X(C
 12H24)]\\@


 HO!  SUCH BUGS AND GOBLINS IN MY LIFE!

                            -- HAMLET, ACT 5, SCENE 2
 Job cpu time:       0 days 10 hours  0 minutes 52.9 seconds.
 File lengths (MBytes):  RWF=     40 Int=      0 D2E=      0 Chk=     17 Scr=      1
 Normal termination of Gaussian 09 at Tue Oct 17 18:10:42 2017.
34682.28user 1370.66system 1:21:41elapsed 735%CPU (0avgtext+0avgdata 7507936maxresident)k
325512inputs+3307680outputs (239major+876679738minor)pagefaults 0swaps
