16
20170630_augccpVTZ_ccsd_octa1235ene.out	Energy: -194148.6533287
C          4.34898       -0.45554        0.00023
H          5.16969        0.25150        0.00028
C          3.10140       -0.05279        0.00008
C          1.90691        0.33446       -0.00006
C          0.64990        0.74589       -0.00020
H          0.45037        1.81620       -0.00030
C         -0.48881       -0.12324       -0.00024
H         -0.29617       -1.19252       -0.00039
C         -1.75745        0.31682       -0.00011
H         -1.94276        1.38937        0.00005
C         -2.90788       -0.54358       -0.00017
H         -2.71111       -1.61271       -0.00072
C         -4.16586       -0.10707        0.00039
H         -5.00631       -0.78663        0.00031
H         -4.38973        0.95361        0.00095
H          4.60295       -1.50849        0.00030
