 Entering Gaussian System, Link 0=g09
 Initial command:
 /panfs/roc/msisoft/gaussian/g09.e01_mesabi/g09/l1.exe "/scratch/graha682/3881877.mesabim3.msi.umn.edu/Gau-13393.inp" -scrdir="/scratch/graha682/3881877.mesabim3.msi.umn.edu/"
 Entering Link 1 = /panfs/roc/msisoft/gaussian/g09.e01_mesabi/g09/l1.exe PID=     13394.
  
 Copyright (c) 1988,1990,1992,1993,1995,1998,2003,2009,2015,
            Gaussian, Inc.  All Rights Reserved.
  
 This is part of the Gaussian(R) 09 program.  It is based on
 the Gaussian(R) 03 system (copyright 2003, Gaussian, Inc.),
 the Gaussian(R) 98 system (copyright 1998, Gaussian, Inc.),
 the Gaussian(R) 94 system (copyright 1995, Gaussian, Inc.),
 the Gaussian 92(TM) system (copyright 1992, Gaussian, Inc.),
 the Gaussian 90(TM) system (copyright 1990, Gaussian, Inc.),
 the Gaussian 88(TM) system (copyright 1988, Gaussian, Inc.),
 the Gaussian 86(TM) system (copyright 1986, Carnegie Mellon
 University), and the Gaussian 82(TM) system (copyright 1983,
 Carnegie Mellon University). Gaussian is a federally registered
 trademark of Gaussian, Inc.
  
 This software contains proprietary and confidential information,
 including trade secrets, belonging to Gaussian, Inc.
  
 This software is provided under written license and may be
 used, copied, transmitted, or stored only in accord with that
 written license.
  
 The following legend is applicable only to US Government
 contracts under FAR:
  
                    RESTRICTED RIGHTS LEGEND
  
 Use, reproduction and disclosure by the US Government is
 subject to restrictions as set forth in subparagraphs (a)
 and (c) of the Commercial Computer Software - Restricted
 Rights clause in FAR 52.227-19.
  
 Gaussian, Inc.
 340 Quinnipiac St., Bldg. 40, Wallingford CT 06492
  
  
 ---------------------------------------------------------------
 Warning -- This program may not be used in any manner that
 competes with the business of Gaussian, Inc. or will provide
 assistance to any competitor of Gaussian, Inc.  The licensee
 of this program is prohibited from giving any competitor of
 Gaussian, Inc. access to this program.  By using this program,
 the user acknowledges that Gaussian, Inc. is engaged in the
 business of creating and licensing software in the field of
 computational chemistry and represents and warrants to the
 licensee that it is not a competitor of Gaussian, Inc. and that
 it will not use this program in any manner prohibited above.
 ---------------------------------------------------------------
  

 Cite this work as:
 Gaussian 09, Revision E.01,
 M. J. Frisch, G. W. Trucks, H. B. Schlegel, G. E. Scuseria, 
 M. A. Robb, J. R. Cheeseman, G. Scalmani, V. Barone, B. Mennucci, 
 G. A. Petersson, H. Nakatsuji, M. Caricato, X. Li, H. P. Hratchian, 
 A. F. Izmaylov, J. Bloino, G. Zheng, J. L. Sonnenberg, M. Hada, 
 M. Ehara, K. Toyota, R. Fukuda, J. Hasegawa, M. Ishida, T. Nakajima, 
 Y. Honda, O. Kitao, H. Nakai, T. Vreven, J. A. Montgomery, Jr., 
 J. E. Peralta, F. Ogliaro, M. Bearpark, J. J. Heyd, E. Brothers, 
 K. N. Kudin, V. N. Staroverov, T. Keith, R. Kobayashi, J. Normand, 
 K. Raghavachari, A. Rendell, J. C. Burant, S. S. Iyengar, J. Tomasi, 
 M. Cossi, N. Rega, J. M. Millam, M. Klene, J. E. Knox, J. B. Cross, 
 V. Bakken, C. Adamo, J. Jaramillo, R. Gomperts, R. E. Stratmann, 
 O. Yazyev, A. J. Austin, R. Cammi, C. Pomelli, J. W. Ochterski, 
 R. L. Martin, K. Morokuma, V. G. Zakrzewski, G. A. Voth, 
 P. Salvador, J. J. Dannenberg, S. Dapprich, A. D. Daniels, 
 O. Farkas, J. B. Foresman, J. V. Ortiz, J. Cioslowski, 
 and D. J. Fox, Gaussian, Inc., Wallingford CT, 2013.
 
 ******************************************
 Gaussian 09:  ES64L-G09RevE.01 30-Nov-2015
                 6-Jul-2017 
 ******************************************
 %LindaWorkers=in-cn0604
 %NProcShared=24
 Will use up to   24 processors via shared memory.
 %Mem=59800mb
 %chk=20170630_augccpVTZ_ccsdt_chlorobutane.chk
 SetLPE:  input flags=" -workerwait 900 -opt "Tsnet.Node.lindarsharg: ssh " "
 SetLPE:    new flags=" -workerwait 900 -opt "Tsnet.Node.lindarsharg: ssh "  -nodelist 'in-cn0604'"
 Will use up to    1 processors via Linda.
 --------------------------------------------
 # opt freq aug-cc-pvtz geom=connectivity m06
 --------------------------------------------
 1/14=-1,18=20,19=15,26=3,38=1,57=2/1,3;
 2/9=110,12=2,17=6,18=5,40=1/2;
 3/5=16,6=1,7=10,11=2,16=1,25=1,30=1,71=1,74=-54/1,2,3;
 4//1;
 5/5=2,38=5/2;
 6/7=2,8=2,9=2,10=2,28=1/1;
 7//1,2,3,16;
 1/14=-1,18=20,19=15,26=3/3(2);
 2/9=110/2;
 99//99;
 2/9=110/2;
 3/5=16,6=1,7=10,11=2,16=1,25=1,30=1,71=1,74=-54/1,2,3;
 4/5=5,16=3,69=1/1;
 5/5=2,38=5/2;
 7//1,2,3,16;
 1/14=-1,18=20,19=15,26=3/3(-5);
 2/9=110/2;
 6/7=2,8=2,9=2,10=2,19=2,28=1/1;
 99/9=1/99;
 --------------
 1chloro-butane
 --------------
 Symbolic Z-matrix:
 Charge =  0 Multiplicity = 1
 C                    -5.5638    1.88427   0. 
 H                    -5.20713   2.38867   0.87365 
 H                    -5.20713   2.38867  -0.87365 
 C                    -5.05048   0.43234   0. 
 H                    -5.40715  -0.07206   0.87365 
 H                    -5.40716  -0.07206  -0.87365 
 C                    -3.51048   0.43232  0. 
 H                    -3.15381   0.93672  -0.87366 
 H                    -3.15381   0.93672   0.87365 
 C                    -2.99717  -1.01961  0. 
 H                    -3.35384  -1.52401   0.87365 
 H                    -3.35384  -1.52401  -0.87365 
 H                    -1.92717  -1.01962  -0.00001 
 Cl                   -7.3238    1.88429   0. 
 

 GradGradGradGradGradGradGradGradGradGradGradGradGradGradGradGradGradGrad
 Berny optimization.
 Initialization pass.
                           ----------------------------
                           !    Initial Parameters    !
                           ! (Angstroms and Degrees)  !
 --------------------------                            --------------------------
 ! Name  Definition              Value          Derivative Info.                !
 --------------------------------------------------------------------------------
 ! R1    R(1,2)                  1.07           estimate D2E/DX2                !
 ! R2    R(1,3)                  1.07           estimate D2E/DX2                !
 ! R3    R(1,4)                  1.54           estimate D2E/DX2                !
 ! R4    R(1,14)                 1.76           estimate D2E/DX2                !
 ! R5    R(4,5)                  1.07           estimate D2E/DX2                !
 ! R6    R(4,6)                  1.07           estimate D2E/DX2                !
 ! R7    R(4,7)                  1.54           estimate D2E/DX2                !
 ! R8    R(7,8)                  1.07           estimate D2E/DX2                !
 ! R9    R(7,9)                  1.07           estimate D2E/DX2                !
 ! R10   R(7,10)                 1.54           estimate D2E/DX2                !
 ! R11   R(10,11)                1.07           estimate D2E/DX2                !
 ! R12   R(10,12)                1.07           estimate D2E/DX2                !
 ! R13   R(10,13)                1.07           estimate D2E/DX2                !
 ! A1    A(2,1,3)              109.4713         estimate D2E/DX2                !
 ! A2    A(2,1,4)              109.4712         estimate D2E/DX2                !
 ! A3    A(2,1,14)             109.4712         estimate D2E/DX2                !
 ! A4    A(3,1,4)              109.4712         estimate D2E/DX2                !
 ! A5    A(3,1,14)             109.4712         estimate D2E/DX2                !
 ! A6    A(4,1,14)             109.4712         estimate D2E/DX2                !
 ! A7    A(1,4,5)              109.4712         estimate D2E/DX2                !
 ! A8    A(1,4,6)              109.4712         estimate D2E/DX2                !
 ! A9    A(1,4,7)              109.4712         estimate D2E/DX2                !
 ! A10   A(5,4,6)              109.4712         estimate D2E/DX2                !
 ! A11   A(5,4,7)              109.4713         estimate D2E/DX2                !
 ! A12   A(6,4,7)              109.4712         estimate D2E/DX2                !
 ! A13   A(4,7,8)              109.4712         estimate D2E/DX2                !
 ! A14   A(4,7,9)              109.4712         estimate D2E/DX2                !
 ! A15   A(4,7,10)             109.4712         estimate D2E/DX2                !
 ! A16   A(8,7,9)              109.4712         estimate D2E/DX2                !
 ! A17   A(8,7,10)             109.4713         estimate D2E/DX2                !
 ! A18   A(9,7,10)             109.4712         estimate D2E/DX2                !
 ! A19   A(7,10,11)            109.4712         estimate D2E/DX2                !
 ! A20   A(7,10,12)            109.4712         estimate D2E/DX2                !
 ! A21   A(7,10,13)            109.4712         estimate D2E/DX2                !
 ! A22   A(11,10,12)           109.4713         estimate D2E/DX2                !
 ! A23   A(11,10,13)           109.4712         estimate D2E/DX2                !
 ! A24   A(12,10,13)           109.4712         estimate D2E/DX2                !
 ! D1    D(2,1,4,5)             59.9999         estimate D2E/DX2                !
 ! D2    D(2,1,4,6)            179.9999         estimate D2E/DX2                !
 ! D3    D(2,1,4,7)            -60.0002         estimate D2E/DX2                !
 ! D4    D(3,1,4,5)            179.9999         estimate D2E/DX2                !
 ! D5    D(3,1,4,6)            -60.0001         estimate D2E/DX2                !
 ! D6    D(3,1,4,7)             59.9999         estimate D2E/DX2                !
 ! D7    D(14,1,4,5)           -60.0001         estimate D2E/DX2                !
 ! D8    D(14,1,4,6)            59.9999         estimate D2E/DX2                !
 ! D9    D(14,1,4,7)           179.9999         estimate D2E/DX2                !
 ! D10   D(1,4,7,8)            -60.0            estimate D2E/DX2                !
 ! D11   D(1,4,7,9)             60.0            estimate D2E/DX2                !
 ! D12   D(1,4,7,10)           179.9999         estimate D2E/DX2                !
 ! D13   D(5,4,7,8)            180.0            estimate D2E/DX2                !
 ! D14   D(5,4,7,9)            -60.0            estimate D2E/DX2                !
 ! D15   D(5,4,7,10)            60.0            estimate D2E/DX2                !
 ! D16   D(6,4,7,8)             60.0            estimate D2E/DX2                !
 ! D17   D(6,4,7,9)            180.0            estimate D2E/DX2                !
 ! D18   D(6,4,7,10)           -60.0001         estimate D2E/DX2                !
 ! D19   D(4,7,10,11)          -60.0001         estimate D2E/DX2                !
 ! D20   D(4,7,10,12)           59.9999         estimate D2E/DX2                !
 ! D21   D(4,7,10,13)          179.9999         estimate D2E/DX2                !
 ! D22   D(8,7,10,11)          179.9999         estimate D2E/DX2                !
 ! D23   D(8,7,10,12)          -60.0            estimate D2E/DX2                !
 ! D24   D(8,7,10,13)           59.9999         estimate D2E/DX2                !
 ! D25   D(9,7,10,11)           59.9999         estimate D2E/DX2                !
 ! D26   D(9,7,10,12)          179.9999         estimate D2E/DX2                !
 ! D27   D(9,7,10,13)          -60.0001         estimate D2E/DX2                !
 --------------------------------------------------------------------------------
 Trust Radius=3.00D-01 FncErr=1.00D-07 GrdErr=1.00D-06
 Number of steps in this run=     74 maximum allowed number of steps=    100.
 GradGradGradGradGradGradGradGradGradGradGradGradGradGradGradGradGradGrad

                          Input orientation:                          
 ---------------------------------------------------------------------
 Center     Atomic      Atomic             Coordinates (Angstroms)
 Number     Number       Type             X           Y           Z
 ---------------------------------------------------------------------
      1          6           0       -5.563798    1.884273    0.000000
      2          1           0       -5.207126    2.388671    0.873652
      3          1           0       -5.207126    2.388671   -0.873652
      4          6           0       -5.050483    0.432341    0.000000
      5          1           0       -5.407154   -0.072057    0.873653
      6          1           0       -5.407157   -0.072059   -0.873650
      7          6           0       -3.510483    0.432323   -0.000004
      8          1           0       -3.153813    0.936720   -0.873657
      9          1           0       -3.153808    0.936723    0.873646
     10          6           0       -2.997167   -1.019610   -0.000002
     11          1           0       -3.353836   -1.524006    0.873652
     12          1           0       -3.353843   -1.524010   -0.873651
     13          1           0       -1.927167   -1.019622   -0.000006
     14         17           0       -7.323798    1.884295    0.000000
 ---------------------------------------------------------------------
                    Distance matrix (angstroms):
                    1          2          3          4          5
     1  C    0.000000
     2  H    1.070000   0.000000
     3  H    1.070000   1.747303   0.000000
     4  C    1.540000   2.148263   2.148263   0.000000
     5  H    2.148263   2.468844   3.024610   1.070000   0.000000
     6  H    2.148263   3.024610   2.468847   1.070000   1.747303
     7  C    2.514809   2.732978   2.732976   1.540000   2.148263
     8  H    2.732977   3.062245   2.514808   2.148263   3.024610
     9  H    2.732977   2.514810   3.062240   2.148263   2.468847
    10  C    3.875581   4.154945   4.154944   2.514809   2.732977
    11  H    4.154945   4.329402   4.668704   2.732978   2.514810
    12  H    4.154945   4.668704   4.329403   2.732977   3.062242
    13  H    4.653783   4.810184   4.810181   3.444314   3.710993
    14  Cl   1.760000   2.344774   2.344774   2.697431   2.874736
                    6          7          8          9         10
     6  H    0.000000
     7  C    2.148263   0.000000
     8  H    2.468845   1.070000   0.000000
     9  H    3.024610   1.070000   1.747303   0.000000
    10  C    2.732978   1.540000   2.148263   2.148263   0.000000
    11  H    3.062245   2.148263   3.024610   2.468845   1.070000
    12  H    2.514809   2.148263   2.468847   3.024610   1.070000
    13  H    3.710992   2.148262   2.468845   2.468846   1.070000
    14  Cl   2.874734   4.080392   4.364626   4.364627   5.210796
                   11         12         13         14
    11  H    0.000000
    12  H    1.747303   0.000000
    13  H    1.747303   1.747303   0.000000
    14  Cl   5.304751   5.304749   6.128325   0.000000
 Stoichiometry    C4H9Cl
 Framework group  C1[X(C4H9Cl)]
 Deg. of freedom    36
 Full point group                 C1      NOp   1
 Largest Abelian subgroup         C1      NOp   1
 Largest concise Abelian subgroup C1      NOp   1
                         Standard orientation:                         
 ---------------------------------------------------------------------
 Center     Atomic      Atomic             Coordinates (Angstroms)
 Number     Number       Type             X           Y           Z
 ---------------------------------------------------------------------
      1          6           0        0.774039    0.680487   -0.000001
      2          1           0        0.738955    1.297255   -0.873653
      3          1           0        0.738955    1.297255    0.873650
      4          6           0       -0.430844   -0.278605   -0.000001
      5          1           0       -0.395762   -0.895371   -0.873654
      6          1           0       -0.395760   -0.895375    0.873649
      7          6           0       -1.736712    0.537672    0.000003
      8          1           0       -1.771793    1.154437    0.873656
      9          1           0       -1.771796    1.154442   -0.873647
     10          6           0       -2.941595   -0.421421    0.000001
     11          1           0       -2.906514   -1.038185   -0.873653
     12          1           0       -2.906511   -1.038192    0.873650
     13          1           0       -3.848918    0.145733    0.000005
     14         17           0        2.266460   -0.252400   -0.000001
 ---------------------------------------------------------------------
 Rotational constants (GHZ):     16.6889063      1.3561215      1.2937223
 Standard basis: Aug-CC-pVTZ (5D, 7F)
 There are   504 symmetry adapted cartesian basis functions of A   symmetry.
 There are   441 symmetry adapted basis functions of A   symmetry.
   441 basis functions,   645 primitive gaussians,   504 cartesian basis functions
    25 alpha electrons       25 beta electrons
       nuclear repulsion energy       221.3214552799 Hartrees.
 NAtoms=   14 NActive=   14 NUniq=   14 SFac= 1.00D+00 NAtFMM=   60 NAOKFM=F Big=F
 Integral buffers will be    131072 words long.
 Raffenetti 2 integral format.
 Two-electron integral symmetry is turned on.
 One-electron integrals computed using PRISM.
 NBasis=   441 RedAO= T EigKep=  9.32D-06  NBF=   441
 NBsUse=   441 1.00D-06 EigRej= -1.00D+00 NBFU=   441
 ExpMin= 2.53D-02 ExpMax= 4.56D+05 ExpMxC= 1.44D+03 IAcc=3 IRadAn=         5 AccDes= 0.00D+00
 Harris functional with IExCor= 1009 and IRadAn=       5 diagonalized for initial guess.
 HarFok:  IExCor= 1009 AccDes= 0.00D+00 IRadAn=         5 IDoV= 1 UseB2=F ITyADJ=14
 ICtDFT=  3500011 ScaDFX=  1.000000  1.000000  1.000000  1.000000
 FoFCou: FMM=F IPFlag=           0 FMFlag=      100000 FMFlg1=           0
         NFxFlg=           0 DoJE=T BraDBF=F KetDBF=T FulRan=T
         wScrn=  0.000000 ICntrl=     500 IOpCl=  0 I1Cent=   200000004 NGrid=           0
         NMat0=    1 NMatS0=      1 NMatT0=    0 NMatD0=    1 NMtDS0=    0 NMtDT0=    0
 Petite list used in FoFCou.
 Keep R1 ints in memory in canonical form, NReq=4814561891.
 Requested convergence on RMS density matrix=1.00D-08 within 128 cycles.
 Requested convergence on MAX density matrix=1.00D-06.
 Requested convergence on             energy=1.00D-06.
 No special actions if energy rises.
 SCF Done:  E(RM06) =  -617.971638035     A.U. after   13 cycles
            NFock= 13  Conv=0.43D-08     -V/T= 2.0035

 **********************************************************************

            Population analysis using the SCF density.

 **********************************************************************

 Orbital symmetries:
       Occupied  (A) (A) (A) (A) (A) (A) (A) (A) (A) (A) (A) (A)
                 (A) (A) (A) (A) (A) (A) (A) (A) (A) (A) (A) (A)
                 (A)
       Virtual   (A) (A) (A) (A) (A) (A) (A) (A) (A) (A) (A) (A)
                 (A) (A) (A) (A) (A) (A) (A) (A) (A) (A) (A) (A)
                 (A) (A) (A) (A) (A) (A) (A) (A) (A) (A) (A) (A)
                 (A) (A) (A) (A) (A) (A) (A) (A) (A) (A) (A) (A)
                 (A) (A) (A) (A) (A) (A) (A) (A) (A) (A) (A) (A)
                 (A) (A) (A) (A) (A) (A) (A) (A) (A) (A) (A) (A)
                 (A) (A) (A) (A) (A) (A) (A) (A) (A) (A) (A) (A)
                 (A) (A) (A) (A) (A) (A) (A) (A) (A) (A) (A) (A)
                 (A) (A) (A) (A) (A) (A) (A) (A) (A) (A) (A) (A)
                 (A) (A) (A) (A) (A) (A) (A) (A) (A) (A) (A) (A)
                 (A) (A) (A) (A) (A) (A) (A) (A) (A) (A) (A) (A)
                 (A) (A) (A) (A) (A) (A) (A) (A) (A) (A) (A) (A)
                 (A) (A) (A) (A) (A) (A) (A) (A) (A) (A) (A) (A)
                 (A) (A) (A) (A) (A) (A) (A) (A) (A) (A) (A) (A)
                 (A) (A) (A) (A) (A) (A) (A) (A) (A) (A) (A) (A)
                 (A) (A) (A) (A) (A) (A) (A) (A) (A) (A) (A) (A)
                 (A) (A) (A) (A) (A) (A) (A) (A) (A) (A) (A) (A)
                 (A) (A) (A) (A) (A) (A) (A) (A) (A) (A) (A) (A)
                 (A) (A) (A) (A) (A) (A) (A) (A) (A) (A) (A) (A)
                 (A) (A) (A) (A) (A) (A) (A) (A) (A) (A) (A) (A)
                 (A) (A) (A) (A) (A) (A) (A) (A) (A) (A) (A) (A)
                 (A) (A) (A) (A) (A) (A) (A) (A) (A) (A) (A) (A)
                 (A) (A) (A) (A) (A) (A) (A) (A) (A) (A) (A) (A)
                 (A) (A) (A) (A) (A) (A) (A) (A) (A) (A) (A) (A)
                 (A) (A) (A) (A) (A) (A) (A) (A) (A) (A) (A) (A)
                 (A) (A) (A) (A) (A) (A) (A) (A) (A) (A) (A) (A)
                 (A) (A) (A) (A) (A) (A) (A) (A) (A) (A) (A) (A)
                 (A) (A) (A) (A) (A) (A) (A) (A) (A) (A) (A) (A)
                 (A) (A) (A) (A) (A) (A) (A) (A) (A) (A) (A) (A)
                 (A) (A) (A) (A) (A) (A) (A) (A) (A) (A) (A) (A)
                 (A) (A) (A) (A) (A) (A) (A) (A) (A) (A) (A) (A)
                 (A) (A) (A) (A) (A) (A) (A) (A) (A) (A) (A) (A)
                 (A) (A) (A) (A) (A) (A) (A) (A) (A) (A) (A) (A)
                 (A) (A) (A) (A) (A) (A) (A) (A) (A) (A) (A) (A)
                 (A) (A) (A) (A) (A) (A) (A) (A)
 The electronic state is 1-A.
 Alpha  occ. eigenvalues -- -101.72538 -10.29219 -10.24346 -10.24105 -10.22729
 Alpha  occ. eigenvalues --   -9.57520  -7.28734  -7.27809  -7.27808  -0.88060
 Alpha  occ. eigenvalues --   -0.80924  -0.72980  -0.64258  -0.60866  -0.51029
 Alpha  occ. eigenvalues --   -0.45927  -0.45838  -0.43950  -0.40803  -0.39303
 Alpha  occ. eigenvalues --   -0.36530  -0.35912  -0.35671  -0.30552  -0.29907
 Alpha virt. eigenvalues --   -0.04123  -0.02847  -0.02644  -0.02305  -0.00557
 Alpha virt. eigenvalues --   -0.00211  -0.00090   0.00502   0.00865   0.02031
 Alpha virt. eigenvalues --    0.02892   0.03700   0.04667   0.05180   0.05548
 Alpha virt. eigenvalues --    0.06248   0.06560   0.06920   0.07007   0.07918
 Alpha virt. eigenvalues --    0.08419   0.08955   0.09268   0.09327   0.09986
 Alpha virt. eigenvalues --    0.10504   0.11135   0.11492   0.12012   0.13170
 Alpha virt. eigenvalues --    0.13832   0.14731   0.15096   0.16347   0.16879
 Alpha virt. eigenvalues --    0.17808   0.18218   0.19400   0.20278   0.21317
 Alpha virt. eigenvalues --    0.21862   0.22140   0.23461   0.23474   0.24586
 Alpha virt. eigenvalues --    0.24662   0.25260   0.25661   0.26085   0.26218
 Alpha virt. eigenvalues --    0.26785   0.27363   0.27563   0.27926   0.28441
 Alpha virt. eigenvalues --    0.28571   0.28781   0.28924   0.29268   0.29998
 Alpha virt. eigenvalues --    0.30729   0.31076   0.31104   0.32043   0.32103
 Alpha virt. eigenvalues --    0.32923   0.34301   0.35029   0.35431   0.35682
 Alpha virt. eigenvalues --    0.35922   0.36860   0.37752   0.38036   0.38553
 Alpha virt. eigenvalues --    0.39006   0.39441   0.40172   0.41894   0.42183
 Alpha virt. eigenvalues --    0.43578   0.43857   0.45195   0.45466   0.45815
 Alpha virt. eigenvalues --    0.47248   0.48449   0.48526   0.50886   0.51428
 Alpha virt. eigenvalues --    0.51819   0.53175   0.53313   0.54628   0.56779
 Alpha virt. eigenvalues --    0.58799   0.59044   0.60017   0.61322   0.61373
 Alpha virt. eigenvalues --    0.62785   0.63013   0.63693   0.64574   0.65199
 Alpha virt. eigenvalues --    0.65685   0.66641   0.67233   0.69609   0.69884
 Alpha virt. eigenvalues --    0.70988   0.71619   0.72168   0.72417   0.72659
 Alpha virt. eigenvalues --    0.73589   0.73727   0.74691   0.76135   0.76422
 Alpha virt. eigenvalues --    0.76788   0.77410   0.78352   0.79553   0.79581
 Alpha virt. eigenvalues --    0.80303   0.81245   0.81382   0.83400   0.84655
 Alpha virt. eigenvalues --    0.85800   0.86229   0.87509   0.88566   0.90152
 Alpha virt. eigenvalues --    0.91134   0.91267   0.92262   0.93043   0.94109
 Alpha virt. eigenvalues --    0.94918   0.95192   0.95733   0.95980   0.96923
 Alpha virt. eigenvalues --    0.98124   1.00486   1.01102   1.01956   1.04277
 Alpha virt. eigenvalues --    1.04293   1.04420   1.04579   1.05609   1.05733
 Alpha virt. eigenvalues --    1.07361   1.07587   1.08868   1.09008   1.10234
 Alpha virt. eigenvalues --    1.11311   1.12935   1.13228   1.13748   1.16755
 Alpha virt. eigenvalues --    1.18562   1.19401   1.22014   1.22632   1.23268
 Alpha virt. eigenvalues --    1.24972   1.26234   1.28281   1.28582   1.30467
 Alpha virt. eigenvalues --    1.31236   1.31964   1.32313   1.32953   1.33334
 Alpha virt. eigenvalues --    1.36610   1.37939   1.38901   1.39039   1.40677
 Alpha virt. eigenvalues --    1.41270   1.41632   1.42821   1.43560   1.43960
 Alpha virt. eigenvalues --    1.44921   1.46420   1.46485   1.47514   1.48823
 Alpha virt. eigenvalues --    1.48846   1.49684   1.51032   1.52195   1.53145
 Alpha virt. eigenvalues --    1.53343   1.55016   1.55136   1.57932   1.58083
 Alpha virt. eigenvalues --    1.60053   1.60116   1.60937   1.62371   1.62778
 Alpha virt. eigenvalues --    1.63856   1.66613   1.67404   1.68031   1.70370
 Alpha virt. eigenvalues --    1.70827   1.72120   1.72219   1.74534   1.77547
 Alpha virt. eigenvalues --    1.78703   1.79116   1.80759   1.82708   1.83883
 Alpha virt. eigenvalues --    1.86651   1.88890   1.89416   1.90722   1.91787
 Alpha virt. eigenvalues --    1.95389   1.96134   1.97759   1.99223   1.99408
 Alpha virt. eigenvalues --    2.01590   2.02800   2.02803   2.04335   2.06735
 Alpha virt. eigenvalues --    2.10385   2.10697   2.14624   2.15362   2.16127
 Alpha virt. eigenvalues --    2.18212   2.20772   2.22277   2.26520   2.29388
 Alpha virt. eigenvalues --    2.34575   2.35983   2.39147   2.42802   2.45133
 Alpha virt. eigenvalues --    2.47929   2.52655   2.53825   2.56533   2.62188
 Alpha virt. eigenvalues --    2.71156   2.75094   2.79127   2.79864   2.84817
 Alpha virt. eigenvalues --    2.86591   2.87946   2.88777   2.89626   2.92392
 Alpha virt. eigenvalues --    2.93183   2.97875   2.98692   3.01835   3.03080
 Alpha virt. eigenvalues --    3.03304   3.04784   3.05276   3.07109   3.13376
 Alpha virt. eigenvalues --    3.13853   3.16424   3.19218   3.20280   3.22479
 Alpha virt. eigenvalues --    3.24865   3.26448   3.26463   3.27749   3.29469
 Alpha virt. eigenvalues --    3.30658   3.32637   3.34001   3.34266   3.37885
 Alpha virt. eigenvalues --    3.39995   3.40637   3.42515   3.43963   3.47513
 Alpha virt. eigenvalues --    3.48016   3.51196   3.51307   3.53310   3.54217
 Alpha virt. eigenvalues --    3.58253   3.59878   3.60267   3.61000   3.62317
 Alpha virt. eigenvalues --    3.64798   3.65421   3.66447   3.66969   3.70979
 Alpha virt. eigenvalues --    3.74553   3.79788   3.80726   3.82534   3.84526
 Alpha virt. eigenvalues --    3.85747   3.89580   3.89831   3.90044   3.90854
 Alpha virt. eigenvalues --    3.94866   3.96404   3.99519   4.00020   4.00786
 Alpha virt. eigenvalues --    4.02945   4.04743   4.11708   4.11776   4.17631
 Alpha virt. eigenvalues --    4.18088   4.21212   4.22125   4.23831   4.27286
 Alpha virt. eigenvalues --    4.31353   4.31484   4.34256   4.35028   4.35417
 Alpha virt. eigenvalues --    4.37905   4.40992   4.42459   4.43630   4.45067
 Alpha virt. eigenvalues --    4.47294   4.48293   4.53927   4.54787   4.58822
 Alpha virt. eigenvalues --    4.59459   4.63764   4.66019   4.67660   4.68847
 Alpha virt. eigenvalues --    4.70592   4.73728   4.74895   4.76211   4.78443
 Alpha virt. eigenvalues --    4.78569   4.81775   4.83105   4.85029   4.88094
 Alpha virt. eigenvalues --    4.88279   4.94529   4.97838   4.98505   4.99468
 Alpha virt. eigenvalues --    5.01166   5.02279   5.04275   5.05984   5.09964
 Alpha virt. eigenvalues --    5.11959   5.16141   5.19210   5.20994   5.21721
 Alpha virt. eigenvalues --    5.26389   5.28467   5.31432   5.35844   5.42959
 Alpha virt. eigenvalues --    5.43497   5.43586   5.49112   5.51081   5.54813
 Alpha virt. eigenvalues --    5.59820   5.61387   5.62597   5.68300   5.70340
 Alpha virt. eigenvalues --    5.74368   5.75407   5.79922   5.91521   6.05156
 Alpha virt. eigenvalues --    6.07853   6.22717   6.28486   6.34743   6.36284
 Alpha virt. eigenvalues --    6.48621   7.67408  16.60716  17.10551  17.40494
 Alpha virt. eigenvalues --   17.84816
          Condensed to atoms (all electrons):
               1          2          3          4          5          6
     1  C    8.333522   0.092242   0.092240  -1.182467   0.037667   0.037667
     2  H    0.092242   0.306854   0.024406   0.063845  -0.033963  -0.001507
     3  H    0.092240   0.024406   0.306854   0.063846  -0.001507  -0.033962
     4  C   -1.182467   0.063845   0.063846   9.809346  -0.261030  -0.261029
     5  H    0.037667  -0.033963  -0.001507  -0.261030   0.468683  -0.000008
     6  H    0.037667  -0.001507  -0.033962  -0.261029  -0.000008   0.468681
     7  C    0.268653   0.022181   0.022181  -1.536475  -0.029068  -0.029066
     8  H   -0.053546  -0.030834  -0.007512   0.187052   0.063390   0.007180
     9  H   -0.053546  -0.007512  -0.030833   0.187052   0.007180   0.063389
    10  C   -0.136707   0.004265   0.004265   0.134968   0.019576   0.019577
    11  H    0.005711   0.001440   0.001650  -0.001013  -0.010734  -0.033719
    12  H    0.005711   0.001650   0.001440  -0.001013  -0.033719  -0.010734
    13  H    0.015571   0.000362   0.000362  -0.041863   0.004269   0.004269
    14  Cl  -0.603743   0.040246   0.040246   0.095532  -0.041964  -0.041963
               7          8          9         10         11         12
     1  C    0.268653  -0.053546  -0.053546  -0.136707   0.005711   0.005711
     2  H    0.022181  -0.030834  -0.007512   0.004265   0.001440   0.001650
     3  H    0.022181  -0.007512  -0.030833   0.004265   0.001650   0.001440
     4  C   -1.536475   0.187052   0.187052   0.134968  -0.001013  -0.001013
     5  H   -0.029068   0.063390   0.007180   0.019576  -0.010734  -0.033719
     6  H   -0.029066   0.007180   0.063389   0.019577  -0.033719  -0.010734
     7  C   10.144170  -0.239099  -0.239099  -1.754891   0.200519   0.200520
     8  H   -0.239099   0.420993  -0.018337  -0.076221   0.034648  -0.021917
     9  H   -0.239099  -0.018337   0.420992  -0.076221  -0.021916   0.034648
    10  C   -1.754891  -0.076221  -0.076221  10.423147  -0.147833  -0.147835
    11  H    0.200519   0.034648  -0.021916  -0.147833   0.334415   0.037275
    12  H    0.200520  -0.021917   0.034648  -0.147835   0.037275   0.334416
    13  H    0.072985  -0.024905  -0.024905   0.178709  -0.083549  -0.083549
    14  Cl   0.008789   0.001556   0.001556  -0.003836   0.000216   0.000216
              13         14
     1  C    0.015571  -0.603743
     2  H    0.000362   0.040246
     3  H    0.000362   0.040246
     4  C   -0.041863   0.095532
     5  H    0.004269  -0.041964
     6  H    0.004269  -0.041963
     7  C    0.072985   0.008789
     8  H   -0.024905   0.001556
     9  H   -0.024905   0.001556
    10  C    0.178709  -0.003836
    11  H   -0.083549   0.000216
    12  H   -0.083549   0.000216
    13  H    0.385554   0.000221
    14  Cl   0.000221  17.966404
 Mulliken charges:
               1
     1  C   -0.858974
     2  H    0.516324
     3  H    0.516325
     4  C   -1.256751
     5  H    0.811227
     6  H    0.811225
     7  C   -1.112298
     8  H    0.757552
     9  H    0.757553
    10  C   -2.440961
    11  H    0.682890
    12  H    0.682892
    13  H    0.596469
    14  Cl  -0.463475
 Sum of Mulliken charges =  -0.00000
 Mulliken charges with hydrogens summed into heavy atoms:
               1
     1  C    0.173676
     4  C    0.365702
     7  C    0.402807
    10  C   -0.478710
    14  Cl  -0.463475
 Electronic spatial extent (au):  <R**2>=            892.7367
 Charge=             -0.0000 electrons
 Dipole moment (field-independent basis, Debye):
    X=             -1.9507    Y=              0.8574    Z=              0.0000  Tot=              2.1308
 Quadrupole moment (field-independent basis, Debye-Ang):
   XX=            -44.0782   YY=            -39.4111   ZZ=            -39.0090
   XY=              0.4130   XZ=              0.0000   YZ=             -0.0000
 Traceless Quadrupole moment (field-independent basis, Debye-Ang):
   XX=             -3.2455   YY=              1.4217   ZZ=              1.8238
   XY=              0.4130   XZ=              0.0000   YZ=             -0.0000
 Octapole moment (field-independent basis, Debye-Ang**2):
  XXX=              1.0261  YYY=              0.3617  ZZZ=             -0.0000  XYY=              3.9742
  XXY=              0.1237  XXZ=              0.0000  XZZ=              1.5171  YZZ=              0.5540
  YYZ=              0.0000  XYZ=             -0.0000
 Hexadecapole moment (field-independent basis, Debye-Ang**3):
 XXXX=          -1018.6717 YYYY=           -127.4556 ZZZZ=            -69.3504 XXXY=            -19.9726
 XXXZ=              0.0003 YYYX=             -1.7827 YYYZ=             -0.0000 ZZZX=              0.0003
 ZZZY=             -0.0000 XXYY=           -187.4199 XXZZ=           -181.1843 YYZZ=            -29.5899
 XXYZ=              0.0000 YYXZ=              0.0001 ZZXY=              1.2659
 N-N= 2.213214552799D+02 E-N=-1.901512071161D+03  KE= 6.158108256617D+02
 Calling FoFJK, ICntrl=      2127 FMM=F ISym2X=0 I1Cent= 0 IOpClX= 0 NMat=1 NMatS=1 NMatT=0.
 ***** Axes restored to original set *****
 -------------------------------------------------------------------
 Center     Atomic                   Forces (Hartrees/Bohr)
 Number     Number              X              Y              Z
 -------------------------------------------------------------------
      1        6           0.010185800   -0.034837514   -0.000000022
      2        1           0.001346136    0.008383338    0.010274865
      3        1           0.001346124    0.008383341   -0.010274876
      4        6           0.022214590    0.034425572   -0.000000063
      5        1          -0.006837750   -0.007979504    0.010617501
      6        1          -0.006837827   -0.007979480   -0.010617462
      7        6          -0.021153287   -0.032073337    0.000000153
      8        1           0.006075814    0.009474791   -0.010631249
      9        1           0.006075836    0.009474863    0.010631183
     10        6          -0.004875369    0.029900437   -0.000000065
     11        1          -0.003532913   -0.008818447    0.010340187
     12        1          -0.003532981   -0.008818497   -0.010340130
     13        1           0.013387589   -0.004275101   -0.000000034
     14       17          -0.013861762    0.004739538    0.000000012
 -------------------------------------------------------------------
 Cartesian Forces:  Max     0.034837514 RMS     0.013342997

 GradGradGradGradGradGradGradGradGradGradGradGradGradGradGradGradGradGrad
 Berny optimization.
 FormGI is forming the generalized inverse of G from B-inverse, IUseBI=4.
 Internal  Forces:  Max     0.015169008 RMS     0.006342604
 Search for a local minimum.
 Step number   1 out of a maximum of   74
 All quantities printed in internal units (Hartrees-Bohrs-Radians)
 Mixed Optimization -- RFO/linear search
 Second derivative matrix not updated -- first step.
 ITU=  0
     Eigenvalues ---    0.00237   0.00237   0.00237   0.03840   0.03840
     Eigenvalues ---    0.04896   0.04896   0.05720   0.05720   0.05720
     Eigenvalues ---    0.05976   0.07655   0.07655   0.11701   0.11701
     Eigenvalues ---    0.16000   0.16000   0.16000   0.16000   0.16000
     Eigenvalues ---    0.21948   0.21948   0.22461   0.28519   0.28519
     Eigenvalues ---    0.28519   0.29539   0.37230   0.37230   0.37230
     Eigenvalues ---    0.37230   0.37230   0.37230   0.37230   0.37230
     Eigenvalues ---    0.37230
 RFO step:  Lambda=-8.32057379D-03 EMin= 2.36824120D-03
 Linear search not attempted -- first point.
 Iteration  1 RMS(Cart)=  0.01990598 RMS(Int)=  0.00038111
 Iteration  2 RMS(Cart)=  0.00044254 RMS(Int)=  0.00014877
 Iteration  3 RMS(Cart)=  0.00000010 RMS(Int)=  0.00014877
 Variable       Old X    -DE/DX   Delta X   Delta X   Delta X     New X
                                 (Linear)    (Quad)   (Total)
    R1        2.02201   0.01280   0.00000   0.03363   0.03363   2.05563
    R2        2.02201   0.01280   0.00000   0.03363   0.03363   2.05563
    R3        2.91018  -0.01221   0.00000  -0.04161  -0.04161   2.86856
    R4        3.32592   0.01385   0.00000   0.04560   0.04560   3.37152
    R5        2.02201   0.01471   0.00000   0.03864   0.03864   2.06065
    R6        2.02201   0.01471   0.00000   0.03864   0.03864   2.06065
    R7        2.91018  -0.00760   0.00000  -0.02590  -0.02590   2.88428
    R8        2.02201   0.01517   0.00000   0.03985   0.03985   2.06186
    R9        2.02201   0.01517   0.00000   0.03985   0.03985   2.06186
   R10        2.91018  -0.00702   0.00000  -0.02393  -0.02393   2.88624
   R11        2.02201   0.01379   0.00000   0.03622   0.03622   2.05823
   R12        2.02201   0.01379   0.00000   0.03622   0.03622   2.05823
   R13        2.02201   0.01338   0.00000   0.03514   0.03514   2.05715
    A1        1.91063  -0.00249   0.00000  -0.01151  -0.01175   1.89889
    A2        1.91063   0.00253   0.00000   0.01852   0.01821   1.92885
    A3        1.91063  -0.00614   0.00000  -0.03275  -0.03310   1.87753
    A4        1.91063   0.00253   0.00000   0.01852   0.01821   1.92885
    A5        1.91063  -0.00614   0.00000  -0.03275  -0.03310   1.87753
    A6        1.91063   0.00970   0.00000   0.03999   0.03963   1.95026
    A7        1.91063  -0.00150   0.00000  -0.00689  -0.00714   1.90350
    A8        1.91063  -0.00150   0.00000  -0.00689  -0.00714   1.90350
    A9        1.91063   0.00445   0.00000   0.02622   0.02608   1.93671
   A10        1.91063  -0.00059   0.00000  -0.02417  -0.02426   1.88637
   A11        1.91063  -0.00042   0.00000   0.00586   0.00585   1.91648
   A12        1.91063  -0.00042   0.00000   0.00586   0.00585   1.91648
   A13        1.91063  -0.00140   0.00000  -0.00355  -0.00381   1.90682
   A14        1.91063  -0.00140   0.00000  -0.00355  -0.00381   1.90682
   A15        1.91063   0.00528   0.00000   0.03150   0.03127   1.94190
   A16        1.91063  -0.00080   0.00000  -0.03026  -0.03031   1.88032
   A17        1.91063  -0.00085   0.00000   0.00293   0.00282   1.91345
   A18        1.91063  -0.00085   0.00000   0.00293   0.00282   1.91345
   A19        1.91063   0.00229   0.00000   0.01257   0.01241   1.92304
   A20        1.91063   0.00229   0.00000   0.01257   0.01241   1.92304
   A21        1.91063   0.00521   0.00000   0.03305   0.03275   1.94338
   A22        1.91063  -0.00285   0.00000  -0.02113  -0.02115   1.88949
   A23        1.91063  -0.00347   0.00000  -0.01853  -0.01883   1.89181
   A24        1.91063  -0.00347   0.00000  -0.01853  -0.01883   1.89181
    D1        1.04720   0.00126   0.00000   0.01473   0.01469   1.06189
    D2        3.14159  -0.00131   0.00000  -0.02330  -0.02321   3.11838
    D3       -1.04720  -0.00003   0.00000  -0.00429  -0.00426  -1.05146
    D4        3.14159   0.00131   0.00000   0.02331   0.02321  -3.11838
    D5       -1.04720  -0.00126   0.00000  -0.01472  -0.01469  -1.06189
    D6        1.04720   0.00003   0.00000   0.00429   0.00426   1.05146
    D7       -1.04720   0.00128   0.00000   0.01902   0.01895  -1.02825
    D8        1.04720  -0.00128   0.00000  -0.01901  -0.01895   1.02824
    D9        3.14159   0.00000   0.00000   0.00000   0.00000   3.14159
   D10       -1.04720   0.00134   0.00000   0.02071   0.02069  -1.02651
   D11        1.04720  -0.00134   0.00000  -0.02071  -0.02069   1.02651
   D12        3.14159   0.00000   0.00000   0.00000   0.00000   3.14159
   D13        3.14159   0.00072   0.00000   0.00949   0.00940  -3.13219
   D14       -1.04720  -0.00196   0.00000  -0.03192  -0.03197  -1.07917
   D15        1.04720  -0.00062   0.00000  -0.01121  -0.01129   1.03591
   D16        1.04720   0.00196   0.00000   0.03192   0.03197   1.07917
   D17        3.14159  -0.00072   0.00000  -0.00949  -0.00940   3.13219
   D18       -1.04720   0.00062   0.00000   0.01121   0.01129  -1.03591
   D19       -1.04720   0.00034   0.00000   0.00524   0.00531  -1.04189
   D20        1.04720  -0.00034   0.00000  -0.00524  -0.00531   1.04188
   D21        3.14159   0.00000   0.00000   0.00000   0.00000   3.14159
   D22        3.14159  -0.00066   0.00000  -0.01150  -0.01149   3.13010
   D23       -1.04720  -0.00135   0.00000  -0.02197  -0.02211  -1.06931
   D24        1.04720  -0.00101   0.00000  -0.01674  -0.01680   1.03040
   D25        1.04720   0.00135   0.00000   0.02198   0.02211   1.06931
   D26        3.14159   0.00066   0.00000   0.01150   0.01149  -3.13011
   D27       -1.04720   0.00101   0.00000   0.01674   0.01680  -1.03040
         Item               Value     Threshold  Converged?
 Maximum Force            0.015169     0.000450     NO 
 RMS     Force            0.006343     0.000300     NO 
 Maximum Displacement     0.070423     0.001800     NO 
 RMS     Displacement     0.019692     0.001200     NO 
 Predicted change in Energy=-4.309784D-03
 GradGradGradGradGradGradGradGradGradGradGradGradGradGradGradGradGradGrad

                          Input orientation:                          
 ---------------------------------------------------------------------
 Center     Atomic      Atomic             Coordinates (Angstroms)
 Number     Number       Type             X           Y           Z
 ---------------------------------------------------------------------
      1          6           0       -5.563784    1.868572   -0.000000
      2          1           0       -5.219389    2.399975    0.884476
      3          1           0       -5.219390    2.399974   -0.884477
      4          6           0       -5.043616    0.442498   -0.000000
      5          1           0       -5.421505   -0.074428    0.882645
      6          1           0       -5.421508   -0.074430   -0.882643
      7          6           0       -3.517521    0.417841   -0.000004
      8          1           0       -3.149181    0.945334   -0.881227
      9          1           0       -3.149177    0.945337    0.881216
     10          6           0       -2.986702   -1.014284   -0.000002
     11          1           0       -3.339787   -1.545908    0.882603
     12          1           0       -3.339793   -1.545911   -0.882603
     13          1           0       -1.898275   -1.033477   -0.000006
     14         17           0       -7.347129    1.921561    0.000001
 ---------------------------------------------------------------------
                    Distance matrix (angstroms):
                    1          2          3          4          5
     1  C    0.000000
     2  H    1.087794   0.000000
     3  H    1.087794   1.768953   0.000000
     4  C    1.517979   2.155205   2.155205   0.000000
     5  H    2.138821   2.482644   3.047333   1.090447   0.000000
     6  H    2.138821   3.047333   2.482646   1.090447   1.765288
     7  C    2.508349   2.758172   2.758171   1.526295   2.155586
     8  H    2.731160   3.085360   2.530169   2.149020   3.051985
     9  H    2.731160   2.530170   3.085356   2.149020   2.490661
    10  C    3.866809   4.174249   4.174249   2.520538   2.755115
    11  H    4.169391   4.370686   4.714389   2.763292   2.549274
    12  H    4.169391   4.714389   4.370687   2.763291   3.100789
    13  H    4.675238   4.858055   4.858054   3.474432   3.756594
    14  Cl   1.784132   2.353392   2.353392   2.737480   2.910509
                    6          7          8          9         10
     6  H    0.000000
     7  C    2.155586   0.000000
     8  H    2.490660   1.091089   0.000000
     9  H    3.051985   1.091089   1.762443   0.000000
    10  C    2.755116   1.527335   2.154776   2.154776   0.000000
    11  H    3.100791   2.160299   3.058383   2.498526   1.089167
    12  H    2.549274   2.160299   2.498527   3.058383   1.089167
    13  H    3.756594   2.174461   2.501401   2.501402   1.088597
    14  Cl   2.910508   4.114253   4.399130   4.399131   5.256664
                   11         12         13         14
    11  H    0.000000
    12  H    1.765206   0.000000
    13  H    1.766223   1.766223   0.000000
    14  Cl   5.372254   5.372253   6.198570   0.000000
 Stoichiometry    C4H9Cl
 Framework group  C1[X(C4H9Cl)]
 Deg. of freedom    36
 Full point group                 C1      NOp   1
 Largest Abelian subgroup         C1      NOp   1
 Largest concise Abelian subgroup C1      NOp   1
                         Standard orientation:                         
 ---------------------------------------------------------------------
 Center     Atomic      Atomic             Coordinates (Angstroms)
 Number     Number       Type             X           Y           Z
 ---------------------------------------------------------------------
      1          6           0        0.756637    0.659516   -0.000000
      2          1           0        0.748131    1.292703   -0.884477
      3          1           0        0.748131    1.292702    0.884476
      4          6           0       -0.443074   -0.270512   -0.000001
      5          1           0       -0.398509   -0.909282   -0.882646
      6          1           0       -0.398507   -0.909285    0.882642
      7          6           0       -1.747902    0.521320    0.000003
      8          1           0       -1.778757    1.163948    0.881226
      9          1           0       -1.778759    1.163953   -0.881217
     10          6           0       -2.959851   -0.408159    0.000002
     11          1           0       -2.944106   -1.046160   -0.882604
     12          1           0       -2.944104   -1.046166    0.882603
     13          1           0       -3.891323    0.155224    0.000005
     14         17           0        2.294291   -0.245331   -0.000002
 ---------------------------------------------------------------------
 Rotational constants (GHZ):     17.0356641      1.3313057      1.2739181
 Standard basis: Aug-CC-pVTZ (5D, 7F)
 There are   504 symmetry adapted cartesian basis functions of A   symmetry.
 There are   441 symmetry adapted basis functions of A   symmetry.
   441 basis functions,   645 primitive gaussians,   504 cartesian basis functions
    25 alpha electrons       25 beta electrons
       nuclear repulsion energy       219.9376517668 Hartrees.
 NAtoms=   14 NActive=   14 NUniq=   14 SFac= 1.00D+00 NAtFMM=   60 NAOKFM=F Big=F
 Integral buffers will be    131072 words long.
 Raffenetti 2 integral format.
 Two-electron integral symmetry is turned on.
 One-electron integrals computed using PRISM.
 NBasis=   441 RedAO= T EigKep=  9.15D-06  NBF=   441
 NBsUse=   441 1.00D-06 EigRej= -1.00D+00 NBFU=   441
 Initial guess from the checkpoint file:  "20170630_augccpVTZ_ccsdt_chlorobutane.chk"
 B after Tr=    -0.000000    0.000000    0.000000
         Rot=    1.000000   -0.000000   -0.000000   -0.000332 Ang=  -0.04 deg.
 ExpMin= 2.53D-02 ExpMax= 4.56D+05 ExpMxC= 1.44D+03 IAcc=3 IRadAn=         5 AccDes= 0.00D+00
 Harris functional with IExCor= 1009 and IRadAn=       5 diagonalized for initial guess.
 HarFok:  IExCor= 1009 AccDes= 0.00D+00 IRadAn=         5 IDoV= 1 UseB2=F ITyADJ=14
 ICtDFT=  3500011 ScaDFX=  1.000000  1.000000  1.000000  1.000000
 FoFCou: FMM=F IPFlag=           0 FMFlag=      100000 FMFlg1=           0
         NFxFlg=           0 DoJE=T BraDBF=F KetDBF=T FulRan=T
         wScrn=  0.000000 ICntrl=     500 IOpCl=  0 I1Cent=   200000004 NGrid=           0
         NMat0=    1 NMatS0=      1 NMatT0=    0 NMatD0=    1 NMtDS0=    0 NMtDT0=    0
 Petite list used in FoFCou.
 Keep R1 ints in memory in canonical form, NReq=4814561891.
 Requested convergence on RMS density matrix=1.00D-08 within 128 cycles.
 Requested convergence on MAX density matrix=1.00D-06.
 Requested convergence on             energy=1.00D-06.
 No special actions if energy rises.
 SCF Done:  E(RM06) =  -617.976603446     A.U. after   11 cycles
            NFock= 11  Conv=0.73D-08     -V/T= 2.0039
 Calling FoFJK, ICntrl=      2127 FMM=F ISym2X=0 I1Cent= 0 IOpClX= 0 NMat=1 NMatS=1 NMatT=0.
 ***** Axes restored to original set *****
 -------------------------------------------------------------------
 Center     Atomic                   Forces (Hartrees/Bohr)
 Number     Number              X              Y              Z
 -------------------------------------------------------------------
      1        6           0.008696368   -0.008603546    0.000000003
      2        1          -0.000992952    0.001698099    0.000568840
      3        1          -0.000992965    0.001698087   -0.000568847
      4        6           0.003880039    0.009806780   -0.000000017
      5        1          -0.001452872   -0.002244283    0.000415174
      6        1          -0.001452870   -0.002244277   -0.000415172
      7        6          -0.005022631   -0.009952382    0.000000036
      8        1           0.001366858    0.002247831   -0.000433418
      9        1           0.001366851    0.002247836    0.000433400
     10        6          -0.002006918    0.009509589   -0.000000014
     11        1          -0.000017138   -0.001830509    0.000661421
     12        1          -0.000017138   -0.001830500   -0.000661415
     13        1           0.000667666   -0.001019382    0.000000005
     14       17          -0.004022298    0.000516659    0.000000005
 -------------------------------------------------------------------
 Cartesian Forces:  Max     0.009952382 RMS     0.003593525

 GradGradGradGradGradGradGradGradGradGradGradGradGradGradGradGradGradGrad
 Berny optimization.
 Using GEDIIS/GDIIS optimizer.
 FormGI is forming the generalized inverse of G from B-inverse, IUseBI=4.
 Internal  Forces:  Max     0.005311873 RMS     0.001460383
 Search for a local minimum.
 Step number   2 out of a maximum of   74
 All quantities printed in internal units (Hartrees-Bohrs-Radians)
 Mixed Optimization -- RFO/linear search
 Update second derivatives using D2CorX and points    1    2
 DE= -4.97D-03 DEPred=-4.31D-03 R= 1.15D+00
 TightC=F SS=  1.41D+00  RLast= 1.88D-01 DXNew= 5.0454D-01 5.6346D-01
 Trust test= 1.15D+00 RLast= 1.88D-01 DXMaxT set to 5.05D-01
 ITU=  1  0
 Use linear search instead of GDIIS.
     Eigenvalues ---    0.00237   0.00237   0.00237   0.03601   0.03642
     Eigenvalues ---    0.04565   0.04812   0.05411   0.05446   0.05586
     Eigenvalues ---    0.05731   0.07961   0.07999   0.11926   0.11973
     Eigenvalues ---    0.14809   0.16000   0.16000   0.16000   0.16048
     Eigenvalues ---    0.21876   0.22017   0.22719   0.25199   0.28519
     Eigenvalues ---    0.28554   0.29438   0.37080   0.37230   0.37230
     Eigenvalues ---    0.37230   0.37230   0.37230   0.37230   0.37230
     Eigenvalues ---    0.39054
 RFO step:  Lambda=-5.17279124D-04 EMin= 2.36824120D-03
 Quartic linear search produced a step of  0.27158.
 Iteration  1 RMS(Cart)=  0.00720910 RMS(Int)=  0.00014187
 Iteration  2 RMS(Cart)=  0.00013937 RMS(Int)=  0.00009541
 Iteration  3 RMS(Cart)=  0.00000001 RMS(Int)=  0.00009541
 Variable       Old X    -DE/DX   Delta X   Delta X   Delta X     New X
                                 (Linear)    (Quad)   (Total)
    R1        2.05563   0.00098   0.00913  -0.00389   0.00524   2.06087
    R2        2.05563   0.00098   0.00913  -0.00389   0.00524   2.06087
    R3        2.86856  -0.00531  -0.01130  -0.01468  -0.02599   2.84258
    R4        3.37152   0.00403   0.01239   0.00750   0.01988   3.39140
    R5        2.06065   0.00190   0.01049  -0.00184   0.00865   2.06930
    R6        2.06065   0.00190   0.01049  -0.00184   0.00865   2.06930
    R7        2.88428  -0.00368  -0.00703  -0.01080  -0.01783   2.86645
    R8        2.06186   0.00190   0.01082  -0.00212   0.00870   2.07056
    R9        2.06186   0.00190   0.01082  -0.00212   0.00870   2.07056
   R10        2.88624  -0.00499  -0.00650  -0.01706  -0.02356   2.86269
   R11        2.05823   0.00144   0.00984  -0.00289   0.00694   2.06517
   R12        2.05823   0.00144   0.00984  -0.00289   0.00694   2.06517
   R13        2.05715   0.00068   0.00954  -0.00526   0.00429   2.06144
    A1        1.89889  -0.00146  -0.00319  -0.00160  -0.00519   1.89370
    A2        1.92885   0.00200   0.00495   0.01371   0.01840   1.94725
    A3        1.87753  -0.00137  -0.00899  -0.00768  -0.01672   1.86081
    A4        1.92885   0.00200   0.00495   0.01371   0.01840   1.94725
    A5        1.87753  -0.00137  -0.00899  -0.00768  -0.01672   1.86081
    A6        1.95026  -0.00004   0.01076  -0.01140  -0.00070   1.94956
    A7        1.90350   0.00040  -0.00194   0.00779   0.00575   1.90924
    A8        1.90350   0.00040  -0.00194   0.00779   0.00575   1.90924
    A9        1.93671  -0.00027   0.00708  -0.00130   0.00568   1.94239
   A10        1.88637  -0.00108  -0.00659  -0.02006  -0.02665   1.85972
   A11        1.91648   0.00026   0.00159   0.00267   0.00420   1.92069
   A12        1.91648   0.00026   0.00159   0.00267   0.00420   1.92069
   A13        1.90682  -0.00004  -0.00104   0.00296   0.00177   1.90859
   A14        1.90682  -0.00004  -0.00104   0.00296   0.00177   1.90859
   A15        1.94190   0.00063   0.00849   0.00312   0.01145   1.95335
   A16        1.88032  -0.00091  -0.00823  -0.01914  -0.02737   1.85295
   A17        1.91345   0.00016   0.00077   0.00468   0.00536   1.91882
   A18        1.91345   0.00016   0.00077   0.00468   0.00536   1.91882
   A19        1.92304   0.00133   0.00337   0.00760   0.01087   1.93391
   A20        1.92304   0.00133   0.00337   0.00760   0.01087   1.93391
   A21        1.94338   0.00092   0.00889   0.00090   0.00965   1.95303
   A22        1.88949  -0.00145  -0.00574  -0.00808  -0.01387   1.87562
   A23        1.89181  -0.00113  -0.00511  -0.00432  -0.00957   1.88224
   A24        1.89181  -0.00113  -0.00511  -0.00432  -0.00957   1.88224
    D1        1.06189   0.00002   0.00399  -0.00037   0.00353   1.06542
    D2        3.11838  -0.00081  -0.00630  -0.01558  -0.02197   3.09641
    D3       -1.05146  -0.00040  -0.00116  -0.00797  -0.00922  -1.06068
    D4       -3.11838   0.00081   0.00630   0.01558   0.02198  -3.09641
    D5       -1.06189  -0.00002  -0.00399   0.00037  -0.00353  -1.06542
    D6        1.05146   0.00040   0.00116   0.00798   0.00922   1.06068
    D7       -1.02825   0.00041   0.00515   0.00761   0.01275  -1.01549
    D8        1.02824  -0.00041  -0.00515  -0.00760  -0.01275   1.01550
    D9        3.14159   0.00000   0.00000   0.00000   0.00000  -3.14159
   D10       -1.02651   0.00057   0.00562   0.00984   0.01545  -1.01106
   D11        1.02651  -0.00057  -0.00562  -0.00984  -0.01545   1.01106
   D12        3.14159   0.00000   0.00000   0.00000   0.00000   3.14159
   D13       -3.13219   0.00007   0.00255  -0.00082   0.00170  -3.13050
   D14       -1.07917  -0.00108  -0.00868  -0.02050  -0.02921  -1.10838
   D15        1.03591  -0.00050  -0.00307  -0.01066  -0.01376   1.02216
   D16        1.07917   0.00108   0.00868   0.02050   0.02921   1.10838
   D17        3.13219  -0.00007  -0.00255   0.00083  -0.00170   3.13050
   D18       -1.03591   0.00050   0.00307   0.01066   0.01376  -1.02216
   D19       -1.04189   0.00006   0.00144   0.00022   0.00169  -1.04020
   D20        1.04188  -0.00006  -0.00144  -0.00022  -0.00169   1.04020
   D21        3.14159   0.00000   0.00000   0.00000   0.00000  -3.14159
   D22        3.13010  -0.00040  -0.00312  -0.00864  -0.01178   3.11832
   D23       -1.06931  -0.00052  -0.00601  -0.00909  -0.01516  -1.08447
   D24        1.03040  -0.00046  -0.00456  -0.00886  -0.01347   1.01693
   D25        1.06931   0.00052   0.00601   0.00909   0.01516   1.08447
   D26       -3.13011   0.00040   0.00312   0.00864   0.01178  -3.11832
   D27       -1.03040   0.00046   0.00456   0.00887   0.01347  -1.01693
         Item               Value     Threshold  Converged?
 Maximum Force            0.005312     0.000450     NO 
 RMS     Force            0.001460     0.000300     NO 
 Maximum Displacement     0.023570     0.001800     NO 
 RMS     Displacement     0.007200     0.001200     NO 
 Predicted change in Energy=-4.614463D-04
 GradGradGradGradGradGradGradGradGradGradGradGradGradGradGradGradGradGrad

                          Input orientation:                          
 ---------------------------------------------------------------------
 Center     Atomic      Atomic             Coordinates (Angstroms)
 Number     Number       Type             X           Y           Z
 ---------------------------------------------------------------------
      1          6           0       -5.551312    1.861879   -0.000001
      2          1           0       -5.222311    2.407525    0.885077
      3          1           0       -5.222316    2.407523   -0.885081
      4          6           0       -5.038836    0.447640   -0.000000
      5          1           0       -5.426940   -0.079704    0.877704
      6          1           0       -5.426944   -0.079706   -0.877703
      7          6           0       -3.522414    0.411328   -0.000003
      8          1           0       -3.146264    0.951374   -0.876021
      9          1           0       -3.146261    0.951376    0.876012
     10          6           0       -2.990732   -1.007172   -0.000002
     11          1           0       -3.338578   -1.552089    0.881117
     12          1           0       -3.338582   -1.552091   -0.881119
     13          1           0       -1.900172   -1.032940   -0.000004
     14         17           0       -7.345097    1.917711    0.000004
 ---------------------------------------------------------------------
                    Distance matrix (angstroms):
                    1          2          3          4          5
     1  C    0.000000
     2  H    1.090565   0.000000
     3  H    1.090565   1.770158   0.000000
     4  C    1.504228   2.158280   2.158280   0.000000
     5  H    2.134380   2.495643   3.055418   1.095026   0.000000
     6  H    2.134380   3.055418   2.495643   1.095026   1.755407
     7  C    2.494098   2.767277   2.767278   1.516857   2.153765
     8  H    2.716742   3.087364   2.535832   2.145458   3.056167
     9  H    2.716741   2.535831   3.087364   2.145458   2.502924
    10  C    3.845520   4.174143   4.174144   2.512212   2.750577
    11  H    4.162660   4.384862   4.727203   2.768783   2.555227
    12  H    4.162660   4.727203   4.384862   2.768783   3.102036
    13  H    4.659485   4.863824   4.863825   3.470351   3.757276
    14  Cl   1.794654   2.351486   2.351487   2.734949   2.905056
                    6          7          8          9         10
     6  H    0.000000
     7  C    2.153765   0.000000
     8  H    2.502924   1.095694   0.000000
     9  H    3.056167   1.095694   1.752032   0.000000
    10  C    2.750578   1.514869   2.151163   2.151163   0.000000
    11  H    3.102036   2.159901   3.064612   2.510847   1.092841
    12  H    2.555228   2.159901   2.510846   3.064612   1.092841
    13  H    3.757277   2.171999   2.501530   2.501530   1.090865
    14  Cl   2.905057   4.108783   4.396751   4.396751   5.245516
                   11         12         13         14
    11  H    0.000000
    12  H    1.762236   0.000000
    13  H    1.764909   1.764909   0.000000
    14  Cl   5.372901   5.372901   6.193024   0.000000
 Stoichiometry    C4H9Cl
 Framework group  C1[X(C4H9Cl)]
 Deg. of freedom    36
 Full point group                 C1      NOp   1
 Largest Abelian subgroup         C1      NOp   1
 Largest concise Abelian subgroup C1      NOp   1
                         Standard orientation:                         
 ---------------------------------------------------------------------
 Center     Atomic      Atomic             Coordinates (Angstroms)
 Number     Number       Type             X           Y           Z
 ---------------------------------------------------------------------
      1          6           0        0.744153    0.661194    0.000001
      2          1           0        0.755948    1.298243   -0.885076
      3          1           0        0.755950    1.298239    0.885081
      4          6           0       -0.442289   -0.263500    0.000001
      5          1           0       -0.394304   -0.916503   -0.877704
      6          1           0       -0.394302   -0.916506    0.877703
      7          6           0       -1.745520    0.512675    0.000003
      8          1           0       -1.776625    1.170072    0.876021
      9          1           0       -1.776626    1.170076   -0.876011
     10          6           0       -2.950490   -0.405406    0.000003
     11          1           0       -2.945941   -1.051867   -0.881117
     12          1           0       -2.945940   -1.051870    0.881119
     13          1           0       -3.887545    0.153086    0.000004
     14         17           0        2.292604   -0.246044   -0.000004
 ---------------------------------------------------------------------
 Rotational constants (GHZ):     17.0777553      1.3358857      1.2780947
 Standard basis: Aug-CC-pVTZ (5D, 7F)
 There are   504 symmetry adapted cartesian basis functions of A   symmetry.
 There are   441 symmetry adapted basis functions of A   symmetry.
   441 basis functions,   645 primitive gaussians,   504 cartesian basis functions
    25 alpha electrons       25 beta electrons
       nuclear repulsion energy       220.1583177776 Hartrees.
 NAtoms=   14 NActive=   14 NUniq=   14 SFac= 1.00D+00 NAtFMM=   60 NAOKFM=F Big=F
 Integral buffers will be    131072 words long.
 Raffenetti 2 integral format.
 Two-electron integral symmetry is turned on.
 One-electron integrals computed using PRISM.
 NBasis=   441 RedAO= T EigKep=  8.96D-06  NBF=   441
 NBsUse=   441 1.00D-06 EigRej= -1.00D+00 NBFU=   441
 Initial guess from the checkpoint file:  "20170630_augccpVTZ_ccsdt_chlorobutane.chk"
 B after Tr=     0.000000   -0.000000   -0.000000
         Rot=    1.000000   -0.000000   -0.000000   -0.000168 Ang=  -0.02 deg.
 ExpMin= 2.53D-02 ExpMax= 4.56D+05 ExpMxC= 1.44D+03 IAcc=3 IRadAn=         5 AccDes= 0.00D+00
 Harris functional with IExCor= 1009 and IRadAn=       5 diagonalized for initial guess.
 HarFok:  IExCor= 1009 AccDes= 0.00D+00 IRadAn=         5 IDoV= 1 UseB2=F ITyADJ=14
 ICtDFT=  3500011 ScaDFX=  1.000000  1.000000  1.000000  1.000000
 FoFCou: FMM=F IPFlag=           0 FMFlag=      100000 FMFlg1=           0
         NFxFlg=           0 DoJE=T BraDBF=F KetDBF=T FulRan=T
         wScrn=  0.000000 ICntrl=     500 IOpCl=  0 I1Cent=   200000004 NGrid=           0
         NMat0=    1 NMatS0=      1 NMatT0=    0 NMatD0=    1 NMtDS0=    0 NMtDT0=    0
 Petite list used in FoFCou.
 Keep R1 ints in memory in canonical form, NReq=4814561891.
 Requested convergence on RMS density matrix=1.00D-08 within 128 cycles.
 Requested convergence on MAX density matrix=1.00D-06.
 Requested convergence on             energy=1.00D-06.
 No special actions if energy rises.
 SCF Done:  E(RM06) =  -617.977108957     A.U. after   10 cycles
            NFock= 10  Conv=0.81D-08     -V/T= 2.0039
 Calling FoFJK, ICntrl=      2127 FMM=F ISym2X=0 I1Cent= 0 IOpClX= 0 NMat=1 NMatS=1 NMatT=0.
 ***** Axes restored to original set *****
 -------------------------------------------------------------------
 Center     Atomic                   Forces (Hartrees/Bohr)
 Number     Number              X              Y              Z
 -------------------------------------------------------------------
      1        6           0.002440166    0.000799093   -0.000000007
      2        1          -0.000368890   -0.000287126   -0.000684602
      3        1          -0.000368884   -0.000287121    0.000684609
      4        6          -0.000963048    0.000217894    0.000000010
      5        1           0.000127531    0.000015819   -0.000527389
      6        1           0.000127532    0.000015813    0.000527389
      7        6           0.000711010   -0.000574000   -0.000000001
      8        1          -0.000055468   -0.000030100    0.000450552
      9        1          -0.000055473   -0.000030106   -0.000450551
     10        6           0.000270658    0.000116110   -0.000000006
     11        1           0.000238387    0.000098167   -0.000512220
     12        1           0.000238389    0.000098168    0.000512219
     13        1          -0.000610254   -0.000117442    0.000000001
     14       17          -0.001731657   -0.000035170   -0.000000004
 -------------------------------------------------------------------
 Cartesian Forces:  Max     0.002440166 RMS     0.000595840

 GradGradGradGradGradGradGradGradGradGradGradGradGradGradGradGradGradGrad
 Berny optimization.
 Using GEDIIS/GDIIS optimizer.
 FormGI is forming the generalized inverse of G from B-inverse, IUseBI=4.
 Internal  Forces:  Max     0.001724939 RMS     0.000342621
 Search for a local minimum.
 Step number   3 out of a maximum of   74
 All quantities printed in internal units (Hartrees-Bohrs-Radians)
 Mixed Optimization -- En-DIIS/RFO-DIIS
 Update second derivatives using D2CorX and points    1    2    3
 DE= -5.06D-04 DEPred=-4.61D-04 R= 1.10D+00
 TightC=F SS=  1.41D+00  RLast= 1.06D-01 DXNew= 8.4853D-01 3.1934D-01
 Trust test= 1.10D+00 RLast= 1.06D-01 DXMaxT set to 5.05D-01
 ITU=  1  1  0
 Use linear search instead of GDIIS.
     Eigenvalues ---    0.00237   0.00237   0.00237   0.03477   0.03549
     Eigenvalues ---    0.04075   0.04756   0.05332   0.05366   0.05472
     Eigenvalues ---    0.05530   0.08072   0.08159   0.12011   0.12098
     Eigenvalues ---    0.14232   0.16000   0.16000   0.16004   0.16050
     Eigenvalues ---    0.21771   0.21985   0.22637   0.25211   0.28542
     Eigenvalues ---    0.28598   0.30186   0.37085   0.37230   0.37230
     Eigenvalues ---    0.37230   0.37230   0.37230   0.37230   0.37250
     Eigenvalues ---    0.41198
 RFO step:  Lambda=-2.80778594D-05 EMin= 2.36824120D-03
 Quartic linear search produced a step of  0.05192.
 Iteration  1 RMS(Cart)=  0.00261826 RMS(Int)=  0.00000553
 Iteration  2 RMS(Cart)=  0.00000347 RMS(Int)=  0.00000496
 Iteration  3 RMS(Cart)=  0.00000000 RMS(Int)=  0.00000496
 Variable       Old X    -DE/DX   Delta X   Delta X   Delta X     New X
                                 (Linear)    (Quad)   (Total)
    R1        2.06087  -0.00081   0.00027  -0.00210  -0.00183   2.05904
    R2        2.06087  -0.00081   0.00027  -0.00210  -0.00183   2.05904
    R3        2.84258   0.00020  -0.00135   0.00116  -0.00019   2.84239
    R4        3.39140   0.00172   0.00103   0.00587   0.00690   3.39831
    R5        2.06930  -0.00048   0.00045  -0.00124  -0.00079   2.06851
    R6        2.06930  -0.00048   0.00045  -0.00124  -0.00079   2.06851
    R7        2.86645   0.00073  -0.00093   0.00298   0.00205   2.86850
    R8        2.07056  -0.00040   0.00045  -0.00100  -0.00055   2.07001
    R9        2.07056  -0.00040   0.00045  -0.00100  -0.00055   2.07001
   R10        2.86269  -0.00012  -0.00122   0.00007  -0.00115   2.86154
   R11        2.06517  -0.00053   0.00036  -0.00137  -0.00101   2.06416
   R12        2.06517  -0.00053   0.00036  -0.00137  -0.00101   2.06416
   R13        2.06144  -0.00061   0.00022  -0.00151  -0.00129   2.06015
    A1        1.89370  -0.00016  -0.00027  -0.00012  -0.00041   1.89328
    A2        1.94725   0.00024   0.00096   0.00125   0.00219   1.94944
    A3        1.86081  -0.00002  -0.00087  -0.00063  -0.00149   1.85932
    A4        1.94725   0.00024   0.00096   0.00125   0.00219   1.94944
    A5        1.86081  -0.00002  -0.00087  -0.00063  -0.00149   1.85932
    A6        1.94956  -0.00029  -0.00004  -0.00126  -0.00129   1.94827
    A7        1.90924  -0.00002   0.00030   0.00051   0.00081   1.91005
    A8        1.90924  -0.00002   0.00030   0.00051   0.00081   1.91005
    A9        1.94239   0.00034   0.00029   0.00254   0.00283   1.94522
   A10        1.85972  -0.00008  -0.00138  -0.00247  -0.00386   1.85586
   A11        1.92069  -0.00012   0.00022  -0.00065  -0.00044   1.92025
   A12        1.92069  -0.00012   0.00022  -0.00065  -0.00044   1.92025
   A13        1.90859  -0.00009   0.00009  -0.00023  -0.00015   1.90844
   A14        1.90859  -0.00009   0.00009  -0.00023  -0.00015   1.90844
   A15        1.95335   0.00034   0.00059   0.00234   0.00293   1.95628
   A16        1.85295  -0.00007  -0.00142  -0.00231  -0.00374   1.84922
   A17        1.91882  -0.00006   0.00028   0.00010   0.00037   1.91919
   A18        1.91882  -0.00006   0.00028   0.00010   0.00037   1.91919
   A19        1.93391   0.00020   0.00056   0.00102   0.00158   1.93549
   A20        1.93391   0.00020   0.00056   0.00102   0.00158   1.93549
   A21        1.95303   0.00012   0.00050   0.00087   0.00137   1.95440
   A22        1.87562  -0.00022  -0.00072  -0.00140  -0.00213   1.87349
   A23        1.88224  -0.00016  -0.00050  -0.00085  -0.00135   1.88089
   A24        1.88224  -0.00016  -0.00050  -0.00085  -0.00135   1.88089
    D1        1.06542  -0.00001   0.00018   0.00039   0.00057   1.06599
    D2        3.09641  -0.00012  -0.00114  -0.00200  -0.00315   3.09326
    D3       -1.06068  -0.00007  -0.00048  -0.00081  -0.00129  -1.06197
    D4       -3.09641   0.00012   0.00114   0.00200   0.00315  -3.09326
    D5       -1.06542   0.00001  -0.00018  -0.00039  -0.00057  -1.06599
    D6        1.06068   0.00007   0.00048   0.00080   0.00129   1.06197
    D7       -1.01549   0.00006   0.00066   0.00120   0.00186  -1.01363
    D8        1.01550  -0.00006  -0.00066  -0.00120  -0.00186   1.01363
    D9       -3.14159  -0.00000   0.00000  -0.00000  -0.00000   3.14159
   D10       -1.01106   0.00009   0.00080   0.00152   0.00232  -1.00874
   D11        1.01106  -0.00009  -0.00080  -0.00152  -0.00232   1.00874
   D12        3.14159   0.00000   0.00000   0.00000   0.00000  -3.14159
   D13       -3.13050  -0.00003   0.00009  -0.00038  -0.00029  -3.13079
   D14       -1.10838  -0.00021  -0.00152  -0.00341  -0.00493  -1.11331
   D15        1.02216  -0.00012  -0.00071  -0.00190  -0.00261   1.01955
   D16        1.10838   0.00021   0.00152   0.00342   0.00493   1.11331
   D17        3.13050   0.00003  -0.00009   0.00038   0.00029   3.13079
   D18       -1.02216   0.00012   0.00071   0.00190   0.00261  -1.01954
   D19       -1.04020   0.00001   0.00009   0.00022   0.00030  -1.03989
   D20        1.04020  -0.00001  -0.00009  -0.00022  -0.00030   1.03989
   D21       -3.14159  -0.00000   0.00000  -0.00000  -0.00000   3.14159
   D22        3.11832  -0.00006  -0.00061  -0.00113  -0.00175   3.11658
   D23       -1.08447  -0.00009  -0.00079  -0.00157  -0.00236  -1.08683
   D24        1.01693  -0.00007  -0.00070  -0.00135  -0.00205   1.01488
   D25        1.08447   0.00009   0.00079   0.00157   0.00236   1.08683
   D26       -3.11832   0.00006   0.00061   0.00113   0.00175  -3.11658
   D27       -1.01693   0.00007   0.00070   0.00135   0.00205  -1.01488
         Item               Value     Threshold  Converged?
 Maximum Force            0.001725     0.000450     NO 
 RMS     Force            0.000343     0.000300     NO 
 Maximum Displacement     0.007472     0.001800     NO 
 RMS     Displacement     0.002616     0.001200     NO 
 Predicted change in Energy=-1.533443D-05
 GradGradGradGradGradGradGradGradGradGradGradGradGradGradGradGradGradGrad

                          Input orientation:                          
 ---------------------------------------------------------------------
 Center     Atomic      Atomic             Coordinates (Angstroms)
 Number     Number       Type             X           Y           Z
 ---------------------------------------------------------------------
      1          6           0       -5.551534    1.863865   -0.000001
      2          1           0       -5.225168    2.410645    0.884160
      3          1           0       -5.225171    2.410643   -0.884164
      4          6           0       -5.038811    0.449822    0.000000
      5          1           0       -5.427765   -0.078684    0.876106
      6          1           0       -5.427769   -0.078687   -0.876102
      7          6           0       -3.521404    0.409496   -0.000003
      8          1           0       -3.144037    0.950473   -0.874557
      9          1           0       -3.144034    0.950475    0.874548
     10          6           0       -2.989512   -1.008275   -0.000003
     11          1           0       -3.336419   -1.554525    0.879999
     12          1           0       -3.336423   -1.554527   -0.880002
     13          1           0       -1.899662   -1.035195   -0.000005
     14         17           0       -7.349051    1.917126    0.000002
 ---------------------------------------------------------------------
                    Distance matrix (angstroms):
                    1          2          3          4          5
     1  C    0.000000
     2  H    1.089598   0.000000
     3  H    1.089598   1.768324   0.000000
     4  C    1.504129   2.159004   2.159004   0.000000
     5  H    2.134568   2.497573   3.055543   1.094607   0.000000
     6  H    2.134568   3.055543   2.497574   1.094607   1.752208
     7  C    2.497321   2.772933   2.772932   1.517942   2.154089
     8  H    2.719406   3.091326   2.542303   2.146082   3.056042
     9  H    2.719407   2.542305   3.091325   2.146082   2.504915
    10  C    3.848784   4.179583   4.179583   2.515088   2.752595
    11  H    4.167316   4.392034   4.733098   2.773075   2.559658
    12  H    4.167316   4.733098   4.392034   2.773074   3.104148
    13  H    4.662694   4.869759   4.869758   3.472683   3.758988
    14  Cl   1.798306   2.352907   2.352907   2.736821   2.905539
                    6          7          8          9         10
     6  H    0.000000
     7  C    2.154089   0.000000
     8  H    2.504915   1.095402   0.000000
     9  H    3.056042   1.095402   1.749105   0.000000
    10  C    2.752595   1.514260   2.150678   2.150678   0.000000
    11  H    3.104148   2.160093   3.064391   2.512382   1.092308
    12  H    2.559657   2.160093   2.512382   3.064391   1.092308
    13  H    3.758988   2.171907   2.501237   2.501237   1.090182
    14  Cl   2.905538   4.113858   4.402432   4.402433   5.250100
                   11         12         13         14
    11  H    0.000000
    12  H    1.760001   0.000000
    13  H    1.763060   1.763060   0.000000
    14  Cl   5.378473   5.378472   6.197744   0.000000
 Stoichiometry    C4H9Cl
 Framework group  C1[X(C4H9Cl)]
 Deg. of freedom    36
 Full point group                 C1      NOp   1
 Largest Abelian subgroup         C1      NOp   1
 Largest concise Abelian subgroup C1      NOp   1
                         Standard orientation:                         
 ---------------------------------------------------------------------
 Center     Atomic      Atomic             Coordinates (Angstroms)
 Number     Number       Type             X           Y           Z
 ---------------------------------------------------------------------
      1          6           0        0.744271    0.663670    0.000000
      2          1           0        0.758649    1.300283   -0.884161
      3          1           0        0.758650    1.300280    0.884163
      4          6           0       -0.441912   -0.261194   -0.000001
      5          1           0       -0.393568   -0.915615   -0.876106
      6          1           0       -0.393566   -0.915619    0.876102
      7          6           0       -1.748416    0.511592    0.000003
      8          1           0       -1.780316    1.170412    0.874556
      9          1           0       -1.780318    1.170415   -0.874548
     10          6           0       -2.952815   -0.406235    0.000002
     11          1           0       -2.949516   -1.053323   -0.880000
     12          1           0       -2.949513   -1.053327    0.880001
     13          1           0       -3.890102    0.150534    0.000005
     14         17           0        2.294873   -0.247120   -0.000002
 ---------------------------------------------------------------------
 Rotational constants (GHZ):     17.0582139      1.3333382      1.2755372
 Standard basis: Aug-CC-pVTZ (5D, 7F)
 There are   504 symmetry adapted cartesian basis functions of A   symmetry.
 There are   441 symmetry adapted basis functions of A   symmetry.
   441 basis functions,   645 primitive gaussians,   504 cartesian basis functions
    25 alpha electrons       25 beta electrons
       nuclear repulsion energy       220.0097578165 Hartrees.
 NAtoms=   14 NActive=   14 NUniq=   14 SFac= 1.00D+00 NAtFMM=   60 NAOKFM=F Big=F
 Integral buffers will be    131072 words long.
 Raffenetti 2 integral format.
 Two-electron integral symmetry is turned on.
 One-electron integrals computed using PRISM.
 NBasis=   441 RedAO= T EigKep=  8.99D-06  NBF=   441
 NBsUse=   441 1.00D-06 EigRej= -1.00D+00 NBFU=   441
 Initial guess from the checkpoint file:  "20170630_augccpVTZ_ccsdt_chlorobutane.chk"
 B after Tr=    -0.000000    0.000000    0.000000
         Rot=    1.000000    0.000000    0.000000   -0.000039 Ang=   0.00 deg.
 Keep R1 ints in memory in canonical form, NReq=4814561891.
 Requested convergence on RMS density matrix=1.00D-08 within 128 cycles.
 Requested convergence on MAX density matrix=1.00D-06.
 Requested convergence on             energy=1.00D-06.
 No special actions if energy rises.
 SCF Done:  E(RM06) =  -617.977126414     A.U. after    9 cycles
            NFock=  9  Conv=0.56D-08     -V/T= 2.0039
 Calling FoFJK, ICntrl=      2127 FMM=F ISym2X=0 I1Cent= 0 IOpClX= 0 NMat=1 NMatS=1 NMatT=0.
 ***** Axes restored to original set *****
 -------------------------------------------------------------------
 Center     Atomic                   Forces (Hartrees/Bohr)
 Number     Number              X              Y              Z
 -------------------------------------------------------------------
      1        6           0.001133737    0.000332566   -0.000000000
      2        1          -0.000192635   -0.000134609   -0.000142863
      3        1          -0.000192633   -0.000134609    0.000142862
      4        6          -0.000504356   -0.000323368   -0.000000006
      5        1           0.000104159    0.000091546   -0.000121887
      6        1           0.000104162    0.000091547    0.000121881
      7        6           0.000347073    0.000264127   -0.000000000
      8        1          -0.000087715   -0.000079167    0.000109884
      9        1          -0.000087712   -0.000079168   -0.000109882
     10        6          -0.000077937   -0.000189745    0.000000006
     11        1           0.000049195    0.000078331   -0.000124012
     12        1           0.000049197    0.000078334    0.000124011
     13        1          -0.000165330    0.000089687    0.000000002
     14       17          -0.000479205   -0.000085472    0.000000005
 -------------------------------------------------------------------
 Cartesian Forces:  Max     0.001133737 RMS     0.000247795

 GradGradGradGradGradGradGradGradGradGradGradGradGradGradGradGradGradGrad
 Berny optimization.
 Using GEDIIS/GDIIS optimizer.
 FormGI is forming the generalized inverse of G from B-inverse, IUseBI=4.
 Internal  Forces:  Max     0.000471996 RMS     0.000109140
 Search for a local minimum.
 Step number   4 out of a maximum of   74
 All quantities printed in internal units (Hartrees-Bohrs-Radians)
 Mixed Optimization -- En-DIIS/RFO-DIIS
 Swapping is turned off.
 Update second derivatives using D2CorX and points    1    2    3    4
 DE= -1.75D-05 DEPred=-1.53D-05 R= 1.14D+00
 TightC=F SS=  1.41D+00  RLast= 1.65D-02 DXNew= 8.4853D-01 4.9620D-02
 Trust test= 1.14D+00 RLast= 1.65D-02 DXMaxT set to 5.05D-01
 ITU=  1  1  1  0
     Eigenvalues ---    0.00237   0.00237   0.00237   0.03453   0.03525
     Eigenvalues ---    0.04214   0.04749   0.05315   0.05368   0.05444
     Eigenvalues ---    0.05583   0.08071   0.08185   0.12037   0.12125
     Eigenvalues ---    0.14037   0.15999   0.16000   0.16000   0.16131
     Eigenvalues ---    0.21590   0.21847   0.23072   0.23350   0.28542
     Eigenvalues ---    0.28678   0.30009   0.36730   0.37134   0.37230
     Eigenvalues ---    0.37230   0.37230   0.37230   0.37230   0.37253
     Eigenvalues ---    0.37512
 En-DIIS/RFO-DIIS IScMMF=        0 using points:     4    3
 RFO step:  Lambda=-1.69088185D-06.
 DidBck=F Rises=F RFO-DIIS coefs:    1.17763   -0.17763
 Iteration  1 RMS(Cart)=  0.00072656 RMS(Int)=  0.00000099
[...]
 Predicted change in Energy=-2.530617D-07
 Optimization completed.
    -- Stationary point found.
                           ----------------------------
                           !   Optimized Parameters   !
                           ! (Angstroms and Degrees)  !
 --------------------------                            --------------------------
 ! Name  Definition              Value          Derivative Info.                !
 --------------------------------------------------------------------------------
 ! R1    R(1,2)                  1.0892         -DE/DX =    0.0                 !
 ! R2    R(1,3)                  1.0892         -DE/DX =    0.0                 !
 ! R3    R(1,4)                  1.5038         -DE/DX =    0.0                 !
 ! R4    R(1,14)                 1.7997         -DE/DX =    0.0001              !
 ! R5    R(4,5)                  1.0943         -DE/DX =    0.0                 !
 ! R6    R(4,6)                  1.0943         -DE/DX =    0.0                 !
 ! R7    R(4,7)                  1.518          -DE/DX =    0.0001              !
 ! R8    R(7,8)                  1.0952         -DE/DX =    0.0                 !
 ! R9    R(7,9)                  1.0952         -DE/DX =    0.0                 !
 ! R10   R(7,10)                 1.514          -DE/DX =    0.0001              !
 ! R11   R(10,11)                1.0921         -DE/DX =    0.0                 !
 ! R12   R(10,12)                1.0921         -DE/DX =    0.0                 !
 ! R13   R(10,13)                1.0899         -DE/DX =    0.0                 !
 ! A1    A(2,1,3)              108.5539         -DE/DX =    0.0                 !
 ! A2    A(2,1,4)              111.7594         -DE/DX =    0.0                 !
 ! A3    A(2,1,14)             106.4775         -DE/DX =    0.0                 !
 ! A4    A(3,1,4)              111.7594         -DE/DX =    0.0                 !
 ! A5    A(3,1,14)             106.4775         -DE/DX =    0.0                 !
 ! A6    A(4,1,14)             111.5215         -DE/DX =    0.0                 !
 ! A7    A(1,4,5)              109.4587         -DE/DX =    0.0                 !
 ! A8    A(1,4,6)              109.4587         -DE/DX =    0.0                 !
 ! A9    A(1,4,7)              111.4226         -DE/DX =    0.0                 !
 ! A10   A(5,4,6)              106.3407         -DE/DX =    0.0                 !
 ! A11   A(5,4,7)              110.0138         -DE/DX =    0.0                 !
 ! A12   A(6,4,7)              110.0138         -DE/DX =    0.0                 !
 ! A13   A(4,7,8)              109.3402         -DE/DX =    0.0                 !
 ! A14   A(4,7,9)              109.3402         -DE/DX =    0.0                 !
 ! A15   A(4,7,10)             112.0549         -DE/DX =    0.0                 !
 ! A16   A(8,7,9)              105.9527         -DE/DX =    0.0                 !
 ! A17   A(8,7,10)             109.9828         -DE/DX =    0.0                 !
 ! A18   A(9,7,10)             109.9828         -DE/DX =    0.0                 !
 ! A19   A(7,10,11)            110.9162         -DE/DX =    0.0                 !
 ! A20   A(7,10,12)            110.9162         -DE/DX =    0.0                 !
 ! A21   A(7,10,13)            111.9421         -DE/DX =    0.0                 !
 ! A22   A(11,10,12)           107.3339         -DE/DX =    0.0                 !
 ! A23   A(11,10,13)           107.7695         -DE/DX =    0.0                 !
 ! A24   A(12,10,13)           107.7695         -DE/DX =    0.0                 !
 ! D1    D(2,1,4,5)             60.9644         -DE/DX =    0.0                 !
 ! D2    D(2,1,4,6)            177.1509         -DE/DX =    0.0                 !
 ! D3    D(2,1,4,7)            -60.9424         -DE/DX =    0.0                 !
 ! D4    D(3,1,4,5)           -177.1509         -DE/DX =    0.0                 !
 ! D5    D(3,1,4,6)            -60.9644         -DE/DX =    0.0                 !
 ! D6    D(3,1,4,7)             60.9424         -DE/DX =    0.0                 !
 ! D7    D(14,1,4,5)           -58.0933         -DE/DX =    0.0                 !
 ! D8    D(14,1,4,6)            58.0933         -DE/DX =    0.0                 !
 ! D9    D(14,1,4,7)           180.0            -DE/DX =    0.0                 !
 ! D10   D(1,4,7,8)            -57.7938         -DE/DX =    0.0                 !
 ! D11   D(1,4,7,9)             57.7938         -DE/DX =    0.0                 !
 ! D12   D(1,4,7,10)          -180.0            -DE/DX =    0.0                 !
 ! D13   D(5,4,7,8)           -179.3787         -DE/DX =    0.0                 !
 ! D14   D(5,4,7,9)            -63.7911         -DE/DX =    0.0                 !
 ! D15   D(5,4,7,10)            58.4151         -DE/DX =    0.0                 !
 ! D16   D(6,4,7,8)             63.791          -DE/DX =    0.0                 !
 ! D17   D(6,4,7,9)            179.3786         -DE/DX =    0.0                 !
 ! D18   D(6,4,7,10)           -58.4152         -DE/DX =    0.0                 !
 ! D19   D(4,7,10,11)          -59.589          -DE/DX =    0.0                 !
 ! D20   D(4,7,10,12)           59.589          -DE/DX =    0.0                 !
 ! D21   D(4,7,10,13)          180.0            -DE/DX =    0.0                 !
 ! D22   D(8,7,10,11)          178.5719         -DE/DX =    0.0                 !
 ! D23   D(8,7,10,12)          -62.25           -DE/DX =    0.0                 !
 ! D24   D(8,7,10,13)           58.1609         -DE/DX =    0.0                 !
 ! D25   D(9,7,10,11)           62.2501         -DE/DX =    0.0                 !
 ! D26   D(9,7,10,12)         -178.5719         -DE/DX =    0.0                 !
 ! D27   D(9,7,10,13)          -58.1609         -DE/DX =    0.0                 !
 --------------------------------------------------------------------------------
 GradGradGradGradGradGradGradGradGradGradGradGradGradGradGradGradGradGrad

 1\1\GINC-CN0604\Freq\RM06\Aug-CC-pVTZ\C4H9Cl1\GRAHA682\06-Jul-2017\0\\
 #N Geom=AllCheck Guess=TCheck SCRF=Check GenChk RM06/Aug-CC-pVTZ Freq\
 \1chloro-butane\\0,1\C,-5.5502236708,1.8641296566,-0.0000005698\H,-5.2
 256357518,2.4109842842,0.8842358906\H,-5.225639527,2.4109825,-0.884239
 5237\C,-5.0384774279,0.4500331142,-0.0000002492\H,-5.427234646,-0.0783
 439637,0.8759299925\H,-5.4272382307,-0.0783456989,-0.8759278522\C,-3.5
 209798439,0.4095553269,-0.0000032785\H,-3.1437272109,0.9504448049,-0.8
 743832856\H,-3.1437236413,0.9504472061,0.8743736964\C,-2.9901075195,-1
 .0082937893,-0.0000023775\H,-3.336987822,-1.554476299,0.87975452\H,-3.
 3369911725,-1.5544786754,-0.879756473\H,-1.9005457878,-1.0352110115,-0
 .0000044097\Cl,-7.3492458878,1.9152258149,0.0000032796\\Version=ES64L-
 G09RevE.01\State=1-A\HF=-617.9771287\RMSD=6.957e-10\RMSF=6.861e-05\Zer
 oPoint=0.1223431\Thermal=0.1290554\Dipole=0.877916,-0.1461883,-0.00000
 17\DipoleDeriv=0.8806675,-0.1785318,0.0000237,-0.0970705,0.1714204,-0.
 0000346,0.0001269,-0.0000327,0.1557472,-0.0781573,-0.0123517,-0.044169
 4,-0.0050649,0.0144827,-0.0378206,-0.0461557,-0.0685714,-0.0201977,-0.
 0781555,-0.0123532,0.0440939,-0.0049964,0.0143728,0.0377666,0.0460245,
 0.0686681,-0.0201721,-0.0738268,0.0663015,0.0000538,-0.0166946,0.03023
 36,-0.0001075,-0.0001218,0.0000138,0.1386566,0.0060952,-0.0202194,0.04
 46387,-0.0082269,-0.0097529,0.052438,0.0546671,0.0751283,-0.0592563,0.
 006116,-0.0202382,-0.044653,-0.0080884,-0.0097701,-0.0523654,-0.054591
 3,-0.0751987,-0.0591902,0.1113101,-0.0129658,0.0000802,0.0968975,0.058
 4168,0.0001704,0.0002378,-0.0002086,0.1659972,-0.0020698,-0.0065619,0.
 0337201,-0.0252012,-0.0413494,0.0811691,0.0634493,0.0999429,-0.0776576
 ,-0.0021203,-0.006464,-0.0337308,-0.0253632,-0.0412751,-0.081208,-0.06
 35837,-0.0997676,-0.0775135,0.028103,0.0488266,-0.0000509,-0.0061729,0
 .0608539,-0.0001864,-0.0002045,0.0000796,0.104042,0.0373683,-0.0444598
 ,0.0738958,0.0058936,-0.0185791,0.0483039,0.0428556,0.0936661,-0.07268
 65,0.0373355,-0.0444648,-0.0739181,0.0058439,-0.0185415,-0.0482183,-0.
 0427327,-0.0937404,-0.0726195,-0.1736273,0.0645312,0.0000336,0.0237572
 ,0.0081326,0.0000031,0.0000303,0.0000042,0.0685012,-0.6990388,0.178951
 3,-0.0000174,0.0644868,-0.2186446,0.0000899,-0.0000017,0.0000166,-0.17
 36508\Polar=79.0812844,-8.8605021,66.4998761,-0.0002347,0.0007318,56.9
 96039\PG=C01 [X(C4H9Cl1)]\NImag=0\\0.33472531,0.03579282,0.49964217,-0
 .00000104,-0.00000250,0.57479366,-0.05842281,-0.03970901,-0.06328466,0
 .07426399,-0.03814586,-0.11404374,-0.10781616,0.03816470,0.12297156,-0
 .06306192,-0.10775161,-0.22915109,0.06618636,0.11798390,0.23920274,-0.
 05842132,-0.03970887,0.06328696,0.00485633,0.00470856,-0.00705457,0.07
 426301,-0.03814707,-0.11404358,0.10781920,0.00470912,0.00784284,-0.012
 87654,0.03816498,0.12297098,0.06306387,0.10775313,-0.22915292,0.007052
 79,0.01287613,-0.01901750,-0.06618740,-0.11798550,0.23920533,-0.073316
 16,0.03220229,-0.00000280,0.00392563,-0.00803800,0.00068406,0.00392539
 ,-0.00803962,-0.00068095,0.47961297,0.03592978,-0.20225885,0.00000147,
 0.00493566,-0.01615993,0.00020261,0.00493547,-0.01615950,-0.00020415,0
 .03790772,0.52425005,0.00000656,0.00000029,-0.08301629,0.00879934,-0.0
 2646006,0.00183681,-0.00880329,0.02645956,0.00183724,0.00000058,-0.000
 00100,0.58228680,0.00213447,0.00679296,-0.01026762,0.00001776,-0.00064
 165,0.00040062,-0.00041770,0.00249012,0.00004583,-0.07490335,-0.043386
 27,0.07063994,0.08545655,-0.01045193,-0.01862256,0.02769784,-0.0004054
 6,0.00137535,-0.00033753,0.00223615,-0.00504396,-0.00059132,-0.0413831
 2,-0.10242115,0.09548087,0.04478345,0.11543509,-0.00018165,0.00010950,
 0.00086332,-0.00041830,0.00039796,0.00068174,0.00022004,-0.00048394,0.
 00141193,0.07009409,0.09693311,-0.21250357,-0.07795349,-0.10761127,0.2
 2669423,0.00213205,0.00679384,0.01026956,-0.00041696,0.00248933,-0.000
 04670,0.00001864,-0.00064102,-0.00040202,-0.07490432,-0.04338568,-0.07
 064113,0.00325662,0.00528774,0.00870914,0.08545742,-0.01046148,-0.0186
 2153,-0.02769779,0.00223922,-0.00504358,0.00059198,-0.00040210,0.00137
 600,0.00033700,-0.04138492,-0.10241819,-0.09548007,0.00528876,0.007034
 78,0.01216751,0.04478409,0.11543283,0.00017627,-0.00010864,0.00086418,
 -0.00021893,0.00048176,0.00141108,0.00041983,-0.00039680,0.00068001,-0
 .07009485,-0.09693272,-0.21250113,-0.00870870,-0.01216630,-0.02043920,
 0.07795403,0.10760953,0.22669396,-0.01859724,0.00868928,-0.00000543,0.
 00126938,-0.00145648,-0.00009576,0.00126874,-0.00145696,0.00009969,-0.
 18920834,-0.00659579,0.00000057,-0.01420981,-0.00043636,0.00010887,-0.
 01420948,-0.00043713,-0.00010697,0.47652432,0.02870634,-0.00042327,-0.
 00000519,0.00020369,0.00069617,0.00005611,0.00020306,0.00069750,-0.000
 05344,-0.00191391,-0.07823789,-0.00000096,-0.01517259,-0.00037060,-0.0
 0026742,-0.01517225,-0.00037122,0.00027127,0.03187824,0.51377578,-0.00
 000776,-0.00000148,-0.00102341,0.00050151,-0.00036094,0.00004247,-0.00
 049529,0.00036233,0.00003952,-0.00000409,0.00000201,-0.08001378,0.0277
 1955,-0.00113026,0.00079284,-0.02771586,0.00113005,0.00079790,-0.00000
 293,0.00000089,0.57440033,0.00058965,-0.00153463,0.00109597,0.00001751
 ,0.00005184,-0.00007848,-0.00015627,0.00087744,-0.00050260,-0.01422195
 ,-0.01562073,0.02861542,-0.00640246,0.00069270,-0.00045577,0.00180610,
 -0.00012356,-0.00054890,-0.07525162,-0.04199726,0.06710836,0.08533072,
 0.00077043,0.00046118,-0.00079672,-0.00007545,-0.00000208,-0.00006020,
 0.00013661,0.00030107,0.00017901,-0.00062985,-0.00077706,-0.00055089,0
 .00038747,0.00035642,-0.00007793,-0.00005827,-0.00007648,0.00019662,-0
 .04198436,-0.10384336,0.09649048,0.04397678,0.11619385,-0.00029758,0.0
 0045142,-0.00006604,0.00003974,0.00008043,-0.00007860,0.00036821,-0.00
 048087,0.00011193,0.00074476,-0.00045032,0.00044513,-0.00034781,-0.000
 15085,0.00153876,0.00049970,-0.00022132,0.00058434,0.06758376,0.096681
 88,-0.20888901,-0.07552915,-0.10792167,0.22389838,0.00059025,-0.001534
 04,-0.00109357,-0.00015662,0.00087769,0.00050141,0.00001747,0.00005201
 ,0.00007822,-0.01422094,-0.01562026,-0.02861575,0.00180577,-0.00012406
 ,0.00055026,-0.00640322,0.00069231,0.00045360,-0.07525217,-0.04199991,
 -0.06710777,0.00347422,0.00559106,0.00864879,0.08533142,0.00077744,0.0
 0046190,0.00079957,0.00013406,0.00030088,-0.00018036,-0.00007753,-0.00
 000272,0.00006005,-0.00062826,-0.00077827,0.00055142,-0.00005875,-0.00
 007578,-0.00019736,0.00038630,0.00035633,0.00007670,-0.04198368,-0.103
 84494,-0.09649068,0.00559051,0.00723976,0.01223629,0.04397732,0.116194
 84,0.00030061,-0.00045026,-0.00006172,-0.00037006,0.00047998,0.0001093
 2,-0.00004059,-0.00007991,-0.00007909,-0.00074170,0.00044990,0.0004453
 0,-0.00049984,0.00022304,0.00058641,0.00034546,0.00014843,0.00153540,-
 0.06758254,-0.09668359,-0.20888441,-0.00864786,-0.01223562,-0.02102720
 ,0.07552813,0.10792126,0.22389359,-0.00494426,-0.00191564,0.00000303,0
 .00000273,0.00012409,0.00029854,0.00000324,0.00012280,-0.00029958,-0.0
 1774792,0.03704722,0.00000064,0.00173343,0.00046910,-0.00036818,0.0017
 3255,0.00046819,0.00036546,-0.09050788,0.03710507,-0.00000151,0.004087
 07,-0.00973321,-0.00087060,0.00408838,-0.00973242,0.00087208,0.5609419
 3,0.00000841,-0.00062387,0.00000366,0.00010652,-0.00000883,0.00015377,
 0.00010682,-0.00000738,-0.00015759,0.00616479,-0.00265019,0.00000128,-
 0.00136050,0.00069063,-0.00003421,-0.00135966,0.00069221,0.00003286,0.
 04009992,-0.18955774,0.00000337,0.00645661,-0.01706971,-0.00021783,0.0
 0645651,-0.01706977,0.00021565,0.02505928,0.48438328,0.00000625,0.0000
 0221,-0.00063182,0.00014703,0.00029747,0.00026496,-0.00015225,-0.00029
 995,0.00026637,0.00000285,-0.00000164,0.00016078,0.00051074,-0.0008406
 2,0.00009667,-0.00051320,0.00084093,0.00009562,0.00000414,0.00000209,-
 0.07915699,-0.01080755,0.02603073,0.00124381,0.01080553,-0.02603207,0.
 00123978,-0.00000114,-0.00000175,0.55271768,0.00003466,0.00021822,-0.0
 0010424,0.00001333,-0.00002983,-0.00000489,-0.00010172,-0.00006510,0.0
 0009264,0.00120013,0.00030925,-0.00115731,-0.00011287,0.00009570,0.000
 39956,-0.00002135,-0.00007342,-0.00004602,0.00292467,0.00533576,-0.009
 99638,-0.00029154,0.00237800,-0.00022282,0.00018195,-0.00080643,0.0002
 6239,-0.07358337,-0.04095822,0.06818979,0.07534583,-0.00026385,0.00004
 376,-0.00022073,-0.00002799,-0.00003832,0.00001813,-0.00002601,0.00024
 849,-0.00012867,-0.00158238,0.00104384,0.00042729,0.00089322,0.0002608
 9,-0.00045330,0.00008314,0.00000395,-0.00005956,-0.00979917,-0.0174369
 0,0.02670460,0.00279758,-0.00550027,-0.00052231,-0.00068294,0.00133598
 ,-0.00038618,-0.04059274,-0.10709713,0.10239279,0.04301168,0.11988746,
 -0.00010224,-0.00020762,0.00029317,-0.00000720,-0.00001348,-0.00001971
 ,0.00009060,-0.00013502,-0.00003438,0.00010677,-0.00032847,0.00007520,
 -0.00056349,0.00027361,0.00004272,0.00006437,0.00008010,-0.00009702,-0
 .00052382,0.00009472,0.00116917,0.00010030,-0.00045614,0.00147696,-0.0
 0041587,0.00051744,0.00061903,0.06803253,0.10265446,-0.21559117,-0.074
 78618,-0.11366148,0.23098834,0.00003437,0.00021959,0.00010320,-0.00010
 132,-0.00006510,-0.00009207,0.00001340,-0.00003015,0.00000505,0.001199
 88,0.00031047,0.00115640,-0.00002178,-0.00007491,0.00004672,-0.0001125
 9,0.00009615,-0.00039932,0.00292533,0.00533535,0.00999603,0.00018129,-
 0.00080646,-0.00026029,-0.00029160,0.00237748,0.00022153,-0.07358455,-
 0.04095688,-0.06818989,0.00281864,0.00585220,0.00887217,0.07534706,-0.
 00026200,0.00004441,0.00021886,-0.00002595,0.00024969,0.00012995,-0.00
 002811,-0.00003861,-0.00001695,-0.00158295,0.00104540,-0.00042806,0.00
 008329,0.00000372,0.00006035,0.00089288,0.00026005,0.00045277,-0.00980
 065,-0.01744070,-0.02670741,-0.00068326,0.00133635,0.00038863,0.002798
 06,-0.00549961,0.00052216,-0.04059186,-0.10709424,-0.10239178,0.005852
 80,0.00763311,0.01263168,0.04301188,0.11988662,0.00009921,0.00020628,0
 .00028923,-0.00008865,0.00013625,-0.00003220,0.00000860,0.00001413,-0.
 00001889,-0.00010938,0.00033003,0.00007471,-0.00006361,-0.00008037,-0.
 00009699,0.00056467,-0.00027366,0.00004438,0.00052040,-0.00009711,0.00
 116702,0.00041642,-0.00051697,0.00061859,-0.00009953,0.00045696,0.0014
 7887,-0.06803199,-0.10265150,-0.21558755,-0.00887262,-0.01263208,-0.01
 994617,0.07478657,0.11366001,0.23098470,-0.00023894,-0.00054279,-0.000
 00050,-0.00002126,0.00006809,0.00004508,-0.00002126,0.00006987,-0.0000
 4592,0.00059190,0.00310909,0.00000034,0.00028316,-0.00008119,-0.000071
 94,0.00028334,-0.00008185,0.00007313,-0.00956971,-0.00028457,0.0000026
 5,0.00033674,0.00016698,-0.00034212,0.00033497,0.00016639,0.00033943,-
 0.31013152,0.00158516,0.00000028,-0.00844678,0.00013753,-0.00069469,-0
 .00844677,0.00013667,0.00069520,0.33546079,0.00115818,0.00086877,-0.00
 000029,-0.00002324,0.00003048,-0.00008306,-0.00002327,0.00002964,0.000
 08383,0.00080970,-0.00660757,-0.00000011,-0.00012680,-0.00002179,-0.00
 024675,-0.00012694,-0.00002180,0.00024638,0.03306464,0.00055244,-0.000
 00154,-0.00067945,0.00139513,0.00037408,-0.00067875,0.00139551,-0.0003
 7279,0.00070129,-0.04510323,0.00000047,-0.01519023,-0.00040369,-0.0015
 1225,-0.01519045,-0.00040361,0.00151174,-0.00465423,0.04882792,-0.0000
 0113,-0.00000055,0.00062823,-0.00001834,0.00008452,-0.00002607,0.00001
 849,-0.00008466,-0.00002577,0.00000049,-0.00000078,0.00025410,-0.00040
 130,-0.00008050,0.00019675,0.00040126,0.00008096,0.00019657,0.00000034
 ,0.00000130,-0.00138006,-0.00026930,-0.00023953,0.00000397,0.00026949,
 0.00023932,0.00000549,0.00000027,-0.00000207,-0.04551817,0.02619711,-0
 .00139865,0.00102738,-0.02619707,0.00139977,0.00102802,-0.00000061,0.0
 0000015,0.04361003,-0.12630003,-0.00576402,0.00000113,-0.02524770,0.00
 189261,0.00231832,-0.02524792,0.00189358,-0.00231962,-0.03193292,0.000
 12407,-0.00000230,0.00138020,-0.00060780,-0.00067935,0.00138118,-0.000
 60424,0.00068137,0.00189381,0.00777297,0.00000349,0.00050054,-0.000119
 72,-0.00001459,0.00050010,-0.00012244,0.00001296,-0.00208983,-0.001408
 76,-0.00000259,0.00003842,0.00019975,-0.00017325,0.00003863,0.00019920
 ,0.00017473,-0.00041466,0.00095954,0.00000028,0.20550016,-0.00541121,-
 0.03288479,-0.00000122,-0.01022588,0.00182952,0.00215285,-0.01022577,0
 .00182922,-0.00215152,0.02809851,0.00212932,0.00000043,0.00002728,0.00
 139896,-0.00029624,0.00002650,0.00139663,0.00029613,0.00021851,-0.0041
 9526,-0.00000140,0.00019544,-0.00001479,-0.00024758,0.00019500,-0.0000
 1408,0.00024794,0.00146885,0.00051598,0.00000110,-0.00007817,0.0000188
 3,0.00006246,-0.00007917,0.00001742,-0.00006370,0.00020487,-0.00053819
 ,0.00000072,-0.00441475,0.02851124,0.00000055,-0.00000017,-0.03462849,
 -0.01832062,0.00183224,0.00477606,0.01832064,-0.00183202,0.00477622,0.
 00000017,-0.00000006,0.00061871,-0.00051082,-0.00068634,0.00013438,0.0
 0051071,0.00068636,0.00013391,-0.00000031,-0.00000056,0.00093843,-0.00
 049685,-0.00004116,0.00013899,0.00049706,0.00004146,0.00013925,0.00000
 047,-0.00000010,0.00040004,0.00004898,-0.00007985,-0.00000353,-0.00004
 904,0.00008003,-0.00000371,-0.00000034,0.00000013,-0.00000047,-0.00000
 058,0.00000004,0.02258020\\-0.00022973,-0.00004591,0.,0.00004563,0.000
 02361,-0.00002207,0.00004563,0.00002361,0.00002207,0.00014683,0.000143
 99,0.,-0.00003180,-0.00004314,-0.00000641,-0.00003180,-0.00004314,0.00
 000641,-0.00009162,-0.00018324,0.,0.00002642,0.00003650,0.00000264,0.0
 0002642,0.00003650,-0.00000264,-0.00002218,0.00013543,0.,0.00000430,-0
 .00003113,-0.00001123,0.00000430,-0.00003113,0.00001123,-0.00003322,-0
 .00002050,0.,0.00014080,-0.00000145,0.\\\@


 SEE YOU NOW,
 YOUR BAIT OF FALSEHOOD TAKES THIS CARP OF TRUTH.
 AND THUS DO WE OF WISDOM AND OF REACH...
 BY INDIRECTIONS FIND DIRECTIONS OUT.    -- HAMLET, II, 1
 Job cpu time:       0 days  4 hours 27 minutes 16.4 seconds.
 File lengths (MBytes):  RWF=    178 Int=      0 D2E=      0 Chk=     15 Scr=      1
 Normal termination of Gaussian 09 at Thu Jul  6 22:50:25 2017.
24870.45user 416.22system 23:56.25elapsed 1760%CPU (0avgtext+0avgdata 44390276maxresident)k
480384inputs+1721456outputs (421major+104698210minor)pagefaults 0swaps
