 Entering Gaussian System, Link 0=g09
 Initial command:
 /panfs/roc/msisoft/gaussian/g09.e01_mesabi/g09/l1.exe "/scratch/graha682/4575979.mesabim3.msi.umn.edu/Gau-3851.inp" -scrdir="/scratch/graha682/4575979.mesabim3.msi.umn.edu/"
 Entering Link 1 = /panfs/roc/msisoft/gaussian/g09.e01_mesabi/g09/l1.exe PID=      3852.
  
 Copyright (c) 1988,1990,1992,1993,1995,1998,2003,2009,2015,
            Gaussian, Inc.  All Rights Reserved.
  
 This is part of the Gaussian(R) 09 program.  It is based on
 the Gaussian(R) 03 system (copyright 2003, Gaussian, Inc.),
 the Gaussian(R) 98 system (copyright 1998, Gaussian, Inc.),
 the Gaussian(R) 94 system (copyright 1995, Gaussian, Inc.),
 the Gaussian 92(TM) system (copyright 1992, Gaussian, Inc.),
 the Gaussian 90(TM) system (copyright 1990, Gaussian, Inc.),
 the Gaussian 88(TM) system (copyright 1988, Gaussian, Inc.),
 the Gaussian 86(TM) system (copyright 1986, Carnegie Mellon
 University), and the Gaussian 82(TM) system (copyright 1983,
 Carnegie Mellon University). Gaussian is a federally registered
 trademark of Gaussian, Inc.
  
 This software contains proprietary and confidential information,
 including trade secrets, belonging to Gaussian, Inc.
  
 This software is provided under written license and may be
 used, copied, transmitted, or stored only in accord with that
 written license.
  
 The following legend is applicable only to US Government
 contracts under FAR:
  
                    RESTRICTED RIGHTS LEGEND
  
 Use, reproduction and disclosure by the US Government is
 subject to restrictions as set forth in subparagraphs (a)
 and (c) of the Commercial Computer Software - Restricted
 Rights clause in FAR 52.227-19.
  
 Gaussian, Inc.
 340 Quinnipiac St., Bldg. 40, Wallingford CT 06492
  
  
 ---------------------------------------------------------------
 Warning -- This program may not be used in any manner that
 competes with the business of Gaussian, Inc. or will provide
 assistance to any competitor of Gaussian, Inc.  The licensee
 of this program is prohibited from giving any competitor of
 Gaussian, Inc. access to this program.  By using this program,
 the user acknowledges that Gaussian, Inc. is engaged in the
 business of creating and licensing software in the field of
 computational chemistry and represents and warrants to the
 licensee that it is not a competitor of Gaussian, Inc. and that
 it will not use this program in any manner prohibited above.
 ---------------------------------------------------------------
  

 Cite this work as:
 Gaussian 09, Revision E.01,
 M. J. Frisch, G. W. Trucks, H. B. Schlegel, G. E. Scuseria, 
 M. A. Robb, J. R. Cheeseman, G. Scalmani, V. Barone, B. Mennucci, 
 G. A. Petersson, H. Nakatsuji, M. Caricato, X. Li, H. P. Hratchian, 
 A. F. Izmaylov, J. Bloino, G. Zheng, J. L. Sonnenberg, M. Hada, 
 M. Ehara, K. Toyota, R. Fukuda, J. Hasegawa, M. Ishida, T. Nakajima, 
 Y. Honda, O. Kitao, H. Nakai, T. Vreven, J. A. Montgomery, Jr., 
 J. E. Peralta, F. Ogliaro, M. Bearpark, J. J. Heyd, E. Brothers, 
 K. N. Kudin, V. N. Staroverov, T. Keith, R. Kobayashi, J. Normand, 
 K. Raghavachari, A. Rendell, J. C. Burant, S. S. Iyengar, J. Tomasi, 
 M. Cossi, N. Rega, J. M. Millam, M. Klene, J. E. Knox, J. B. Cross, 
 V. Bakken, C. Adamo, J. Jaramillo, R. Gomperts, R. E. Stratmann, 
 O. Yazyev, A. J. Austin, R. Cammi, C. Pomelli, J. W. Ochterski, 
 R. L. Martin, K. Morokuma, V. G. Zakrzewski, G. A. Voth, 
 P. Salvador, J. J. Dannenberg, S. Dapprich, A. D. Daniels, 
 O. Farkas, J. B. Foresman, J. V. Ortiz, J. Cioslowski, 
 and D. J. Fox, Gaussian, Inc., Wallingford CT, 2013.
 
 ******************************************
 Gaussian 09:  ES64L-G09RevE.01 30-Nov-2015
                 4-Dec-2017 
 ******************************************
 %LindaWorkers=in-cn0003
 %NProcShared=24
 Will use up to   24 processors via shared memory.
 %Mem=59800mb
 %chk=20171201_def2svp_m06_135c12h24.chk
 SetLPE:  input flags=" -workerwait 900 -opt "Tsnet.Node.lindarsharg: ssh " "
 SetLPE:    new flags=" -workerwait 900 -opt "Tsnet.Node.lindarsharg: ssh "  -nodelist 'in-cn0003'"
 Will use up to    1 processors via Linda.
 -----------------------------
 # hf/sto-3g geom=connectivity
 -----------------------------
 1/38=1,57=2/1;
 2/12=2,17=6,18=5,40=1/2;
 3/6=3,11=9,16=1,25=1,30=1/1,2,3;
 4//1;
 5/5=2,38=5/2;
 6/7=2,8=2,9=2,10=2,28=1/1;
 99/5=1,9=1/99;
 -------------------
 Title Card Required
 -------------------
 Symbolic Z-matrix:
 Charge =  0 Multiplicity = 1
 C                    -6.85444  -0.13488  -0.16841 
 H                    -7.04021  -0.81833   0.67765 
 H                    -6.88444  -0.74368  -1.08813 
 H                    -7.69705   0.57265  -0.21285 
 C                    -5.52036   0.56989  -0.02104 
 H                    -5.36871   1.27332  -0.86199 
 H                    -5.52345   1.19984   0.8891 
 C                    -4.34402  -0.3886    0.0425 
 H                    -4.3351   -1.02083  -0.8681 
 H                    -4.48926  -1.09459   0.8849 
 C                    -3.00139   0.30277   0.18946 
 H                    -3.00709   0.93031   1.10287 
 H                    -2.85037   1.00933  -0.6497 
 C                    -1.82468  -0.66362   0.24693 
 H                    -1.80066  -1.27769  -0.67321 
 H                    -1.99464  -1.37372   1.0812 
 C                    -0.51189   0.02301   0.42809 
 H                    -0.40546   0.63496   1.33864 
 C                     0.51189  -0.02301  -0.42809 
 H                     1.01674   0.92079  -0.6913 
 C                     1.02469  -1.25287  -1.10052 
 H                     0.47378  -2.13797  -0.72985 
 H                     2.0853   -1.41746  -0.82279 
 C                     0.92912  -1.18701  -2.61986 
 H                     1.46329  -0.28666  -2.98345 
 H                    -0.12867  -1.03681  -2.911 
 C                     1.48222  -2.41783  -3.31368 
 H                     2.54086  -2.56311  -3.01814 
 H                     0.95143  -3.31846  -2.94472 
 C                     1.38452  -2.36042  -4.82816 
 H                     0.32628  -2.21302  -5.11699 
 H                     1.91411  -1.45872  -5.19104 
 C                     1.94021  -3.59664  -5.50724 
 H                     1.86259  -3.54019  -6.60422 
 H                     3.00481  -3.74438  -5.25778 
 H                     1.40351  -4.50474  -5.18363 
 
                          Input orientation:                          
 ---------------------------------------------------------------------
 Center     Atomic      Atomic             Coordinates (Angstroms)
 Number     Number       Type             X           Y           Z
 ---------------------------------------------------------------------
      1          6           0       -6.854443   -0.134877   -0.168414
      2          1           0       -7.040212   -0.818328    0.677653
      3          1           0       -6.884443   -0.743683   -1.088126
      4          1           0       -7.697052    0.572652   -0.212848
      5          6           0       -5.520363    0.569890   -0.021040
      6          1           0       -5.368713    1.273324   -0.861988
      7          1           0       -5.523451    1.199843    0.889097
      8          6           0       -4.344023   -0.388597    0.042497
      9          1           0       -4.335099   -1.020835   -0.868101
     10          1           0       -4.489260   -1.094591    0.884904
     11          6           0       -3.001393    0.302765    0.189464
     12          1           0       -3.007087    0.930311    1.102873
     13          1           0       -2.850369    1.009328   -0.649702
     14          6           0       -1.824677   -0.663624    0.246928
     15          1           0       -1.800656   -1.277687   -0.673205
     16          1           0       -1.994641   -1.373719    1.081199
     17          6           0       -0.511885    0.023005    0.428088
     18          1           0       -0.405457    0.634962    1.338635
     19          6           0        0.511885   -0.023005   -0.428088
     20          1           0        1.016736    0.920794   -0.691305
     21          6           0        1.024689   -1.252870   -1.100521
     22          1           0        0.473777   -2.137966   -0.729854
     23          1           0        2.085305   -1.417464   -0.822793
     24          6           0        0.929118   -1.187006   -2.619863
     25          1           0        1.463291   -0.286659   -2.983452
     26          1           0       -0.128672   -1.036812   -2.911001
     27          6           0        1.482218   -2.417834   -3.313678
     28          1           0        2.540860   -2.563107   -3.018137
     29          1           0        0.951431   -3.318461   -2.944721
     30          6           0        1.384518   -2.360417   -4.828164
     31          1           0        0.326281   -2.213016   -5.116987
     32          1           0        1.914111   -1.458724   -5.191043
     33          6           0        1.940206   -3.596640   -5.507243
     34          1           0        1.862594   -3.540186   -6.604216
     35          1           0        3.004811   -3.744376   -5.257777
     36          1           0        1.403514   -4.504745   -5.183634
 ---------------------------------------------------------------------
                    Distance matrix (angstroms):
                    1          2          3          4          5
     1  C    0.000000
     2  H    1.103379   0.000000
     3  H    1.103365   1.774207   0.000000
     4  H    1.101164   1.777430   1.777409   0.000000
     5  C    1.515977   2.173767   2.173674   2.185125   0.000000
     6  H    2.161358   3.088594   2.533159   2.516642   1.106802
     7  H    2.161330   2.533434   3.088528   2.516385   1.106887
     8  C    2.532008   2.803128   2.803235   3.497428   1.518720
     9  H    2.760720   3.122179   2.573787   3.777735   2.157028
    10  H    2.761272   2.574224   3.122961   3.778186   2.157407
    11  C    3.894304   4.219862   4.219641   4.720583   2.541826
    12  H    4.189623   4.416407   4.757796   4.884139   2.776624
    13  H    4.192070   4.759935   4.420296   4.885884   2.777983
    14  C    5.074508   5.235577   5.233547   6.018684   3.905312
    15  H    5.205919   5.430357   5.128568   6.197029   4.204174
    16  H    5.168553   5.092062   5.386379   6.162825   4.174118
    17  C    6.372502   6.587046   6.595166   7.234607   5.058226
    18  H    6.667328   6.824143   7.054579   7.455088   5.292940
    19  C    7.371752   7.673941   7.460610   8.233334   6.074967
    20  H    7.958851   8.355417   8.084342   8.733855   6.580733
    21  C    8.012456   8.270028   7.925515   8.954845   6.879349
    22  H    7.617768   7.757741   7.497718   8.624221   6.615483
    23  H    9.054962   9.267435   8.998931  10.001355   7.901808
    24  C    8.228025   8.632483   7.974615   9.126934   7.171915
    25  H    8.782492   9.273399   8.572385   9.608670   7.634198
    26  H    7.319239   7.790735   7.003516   8.194558   6.324848
    27  C    9.198070   9.545729   8.817986  10.139879   8.294823
    28  H   10.113799  10.416336   9.791403  11.068761   9.153228
    29  H    8.875515   9.123520   8.454428   9.869151   8.096376
    30  C    9.723517  10.181755   9.218320  10.600894   8.909126
    31  H    8.964923   9.475665   8.389589   9.807365   8.239933
    32  H   10.191512  10.725278   9.734463  11.012873   9.279850
    33  C   10.855080  11.252549  10.273383  11.759692  10.154727
    34  H   11.357923  11.819225  10.712532  12.212774  10.711629
    35  H   11.667690  12.028864  11.143944  12.594360  10.895637
    36  H   10.603869  10.919747   9.980431  11.545951  10.017204
                    6          7          8          9         10
     6  H    0.000000
     7  H    1.759444   0.000000
     8  C    2.151758   2.151958   0.000000
     9  H    2.516259   3.071048   1.108600   0.000000
    10  H    3.071171   2.516743   1.108680   1.761315   0.000000
    11  C    2.766178   2.766769   1.517312   2.156185   2.156383
    12  H    3.091216   2.539771   2.156690   3.074951   2.518844
    13  H    2.541027   3.090237   2.159707   2.524615   3.076923
    14  C    4.188276   4.191160   2.542545   2.770038   2.773580
    15  H    4.390254   4.736892   2.787728   2.554870   3.112847
    16  H    4.708203   4.371799   2.751175   3.066275   2.517850
    17  C    5.178453   5.168488   3.873419   4.169733   4.156587
    18  H    5.466640   5.168659   4.270825   4.801399   4.458102
    19  C    6.037398   6.297270   4.892336   4.968152   5.280501
    20  H    6.397450   6.734210   5.566930   5.695904   6.071425
    21  C    6.878527   7.269974   5.556665   5.369840   5.862644
    22  H    6.766760   7.051859   5.183436   4.938864   5.322387
    23  H    7.924914   8.226423   6.568375   6.432803   6.800396
    24  C    6.986131   7.723049   5.960842   5.550519   6.453739
    25  H    7.321915   8.125324   6.549172   6.215710   7.144914
    26  H    6.082204   6.967568   5.187727   4.676294   5.781605
    27  C    8.159086   8.934780   7.023303   6.463252   7.418733
    28  H    9.051438   9.719022   7.842040   7.367501   8.173913
    29  H    8.084954   8.777091   6.749030   6.126894   7.015180
    30  C    8.633699   9.647930   7.773519   7.084532   8.291123
    31  H    7.917862   9.052073   7.194479   6.418940   7.775796
    32  H    8.901928   9.967618   8.227962   7.611320   8.834754
    33  C    9.935554  10.937348   8.976786   8.218021   9.405202
    34  H   10.413206  11.539986   9.624625   8.812579  10.119976
    35  H   10.705895  11.617255   9.662273   8.975590  10.045645
    36  H    9.895745  10.835277   8.791433   7.980798   9.120367
                   11         12         13         14         15
    11  C    0.000000
    12  H    1.108225   0.000000
    13  H    1.107357   1.761341   0.000000
    14  C    1.523768   2.161334   2.157489   0.000000
    15  H    2.164208   3.079803   2.516523   1.106479   0.000000
    16  H    2.149265   2.516758   3.067116   1.108662   1.767706
    17  C    2.516517   2.739447   2.757349   1.492549   2.136721
    18  H    2.858292   2.628934   3.173520   2.211862   3.106816
    19  C    3.581985   3.954215   3.524142   2.515067   2.642377
    20  H    4.159696   4.405714   3.868342   3.385896   3.573702
    21  C    4.504819   5.086889   4.509640   3.206511   2.857584
    22  H    4.345011   4.988950   4.578409   2.900117   2.432351
    23  H    5.464279   5.928970   5.502741   4.123171   3.891350
    24  C    5.055754   5.816829   4.794782   4.009464   3.354007
    25  H    5.508922   6.177649   5.072833   4.624737   4.119797
    26  H    4.433946   5.316580   4.087517   3.603917   2.803798
    27  C    6.306855   7.132310   6.132986   5.166306   4.364549
    28  H    7.015589   7.743798   6.887461   5.772919   5.098997
    29  H    6.209767   7.078485   6.200851   4.994153   4.110782
    30  C    7.176722   8.080364   6.837324   6.239759   5.346150
    31  H    6.749888   7.725187   6.358557   5.983212   5.014569
    32  H    7.497658   8.339008   7.029604   6.646973   5.851763
    33  C    8.489831   9.416083   8.231662   7.475788   6.537547
    34  H    9.196778  10.153736   8.852476   8.295104   7.329065
    35  H    9.062355   9.922373   8.838280   7.944606   7.084869
    36  H    8.448996   9.408156   8.310058   7.393675   6.405043
                   16         17         18         19         20
    16  H    0.000000
    17  C    2.139149   0.000000
    18  H    2.574214   1.102231   0.000000
    19  C    3.222584   1.335387   2.096604   0.000000
    20  H    4.180305   2.096604   2.494993   1.102231   0.000000
    21  C    3.727044   2.515067   3.399810   1.492549   2.211862
    22  H    3.155483   2.642377   3.569430   2.136721   3.106816
    23  H    4.502561   3.222584   3.884342   2.139149   2.574214
    24  C    4.720285   3.581985   4.557451   2.516517   2.858292
    25  H    5.446134   3.954215   4.798129   2.739447   2.628934
    26  H    4.419616   3.524142   4.575023   2.757349   3.173520
    27  C    5.700321   4.892336   5.875959   3.873419   4.270825
    28  H    6.228159   5.280501   6.155477   4.156587   4.458102
    29  H    5.354381   4.968152   5.984801   4.169733   4.801399
    30  C    6.878434   6.074967   7.085599   5.058226   5.292940
    31  H    6.671477   6.037398   7.093763   5.178453   5.466640
    32  H    7.390980   6.297270   7.238827   5.168488   5.168659
    33  C    7.989491   7.371752   8.382997   6.372502   6.667329
    34  H    8.867776   8.233334   9.255528   7.234607   7.455088
    35  H    8.414104   7.673941   8.620973   6.587046   6.824142
    36  H    7.784530   7.460610   8.498762   6.595166   7.054579
                   21         22         23         24         25
    21  C    0.000000
    22  H    1.106479   0.000000
    23  H    1.108662   1.767706   0.000000
    24  C    1.523768   2.164208   2.149265   0.000000
    25  H    2.161334   3.079803   2.516758   1.108225   0.000000
    26  H    2.157489   2.516523   3.067116   1.107357   1.761341
    27  C    2.542545   2.787728   2.751175   1.517312   2.156690
    28  H    2.773580   3.112847   2.517850   2.156383   2.518844
    29  H    2.770038   2.554870   3.066275   2.156185   3.074951
    30  C    3.905312   4.204174   4.174118   2.541826   2.776624
    31  H    4.188276   4.390254   4.708203   2.766178   3.091216
    32  H    4.191160   4.736892   4.371799   2.766769   2.539771
    33  C    5.074508   5.205919   5.168553   3.894304   4.189623
    34  H    6.018684   6.197029   6.162825   4.720583   4.884139
    35  H    5.235577   5.430357   5.092062   4.219862   4.416406
    36  H    5.233547   5.128568   5.386379   4.219641   4.757796
                   26         27         28         29         30
    26  H    0.000000
    27  C    2.159707   0.000000
    28  H    3.076923   1.108680   0.000000
    29  H    2.524615   1.108600   1.761315   0.000000
    30  C    2.777983   1.518720   2.157407   2.157028   0.000000
    31  H    2.541027   2.151758   3.071171   2.516259   1.106802
    32  H    3.090237   2.151958   2.516743   3.071048   1.106887
    33  C    4.192070   2.532008   2.761272   2.760720   1.515977
    34  H    4.885884   3.497428   3.778186   3.777735   2.185125
    35  H    4.759935   2.803128   2.574224   3.122179   2.173766
    36  H    4.420296   2.803235   3.122961   2.573787   2.173674
                   31         32         33         34         35
    31  H    0.000000
    32  H    1.759444   0.000000
    33  C    2.161358   2.161330   0.000000
    34  H    2.516642   2.516385   1.101164   0.000000
    35  H    3.088593   2.533433   1.103378   1.777429   0.000000
    36  H    2.533159   3.088528   1.103365   1.777409   1.774207
                   36
    36  H    0.000000
 Stoichiometry    C12H24
 Framework group  C1[X(C12H24)]
 Deg. of freedom   102
 Full point group                 C1      NOp   1
 Largest Abelian subgroup         C1      NOp   1
 Largest concise Abelian subgroup C1      NOp   1
                         Standard orientation:                         
 ---------------------------------------------------------------------
 Center     Atomic      Atomic             Coordinates (Angstroms)
 Number     Number       Type             X           Y           Z
 ---------------------------------------------------------------------
      1          6           0        5.413985   -2.033271   -0.107684
      2          1           0        5.776492   -1.790608   -1.121167
      3          1           0        4.787008   -2.936829   -0.196554
      4          1           0        6.291444   -2.298625    0.502409
      5          6           0        4.630547   -0.878801    0.485282
      6          1           0        4.304351   -1.130475    1.512544
      7          1           0        5.285984    0.006254    0.596091
      8          6           0        3.415405   -0.496378   -0.341575
      9          1           0        2.754317   -1.379173   -0.453950
     10          1           0        3.736363   -0.240830   -1.371552
     11          6           0        2.620698    0.657852    0.240170
     12          1           0        3.279133    1.542821    0.347199
     13          1           0        2.296875    0.408252    1.269285
     14          6           0        1.399746    1.033203   -0.590649
     15          1           0        0.727335    0.159237   -0.681976
     16          1           0        1.735295    1.266814   -1.621165
     17          6           0        0.644821    2.192592   -0.030644
     18          1           0        1.206502    3.135814    0.068153
     19          6           0       -0.625642    2.165304    0.379769
     20          1           0       -0.871935    2.625480    1.350590
     21          6           0       -1.759398    1.527930   -0.352387
     22          1           0       -1.403720    1.139470   -1.325468
     23          1           0       -2.526858    2.291102   -0.592604
     24          6           0       -2.425012    0.406918    0.436385
     25          1           0       -2.758888    0.796257    1.418782
     26          1           0       -1.671043   -0.369559    0.670592
     27          6           0       -3.602323   -0.222385   -0.284831
     28          1           0       -4.353238    0.559582   -0.516833
     29          1           0       -3.268570   -0.605985   -1.269947
     30          6           0       -4.266404   -1.344315    0.494129
     31          1           0       -3.511780   -2.120435    0.724758
     32          1           0       -4.595810   -0.956666    1.477196
     33          6           0       -5.440078   -1.963535   -0.238838
     34          1           0       -5.910942   -2.774676    0.338136
     35          1           0       -6.219715   -1.211998   -0.450502
     36          1           0       -5.126664   -2.385908   -1.208780
 ---------------------------------------------------------------------
 Rotational constants (GHZ):      1.2460654      0.2389138      0.2076240
 Standard basis: STO-3G (5D, 7F)
 There are    84 symmetry adapted cartesian basis functions of A   symmetry.
 There are    84 symmetry adapted basis functions of A   symmetry.
    84 basis functions,   252 primitive gaussians,    84 cartesian basis functions
    48 alpha electrons       48 beta electrons
       nuclear repulsion energy       671.1557270212 Hartrees.
 NAtoms=   36 NActive=   36 NUniq=   36 SFac= 1.00D+00 NAtFMM=   60 NAOKFM=F Big=F
 Integral buffers will be    131072 words long.
 Raffenetti 1 integral format.
 Two-electron integral symmetry is turned on.
 One-electron integrals computed using PRISM.
 NBasis=    84 RedAO= T EigKep=  1.86D-01  NBF=    84
 NBsUse=    84 1.00D-06 EigRej= -1.00D+00 NBFU=    84
 ExpMin= 1.69D-01 ExpMax= 7.16D+01 ExpMxC= 7.16D+01 IAcc=1 IRadAn=         1 AccDes= 0.00D+00
 Harris functional with IExCor=  205 and IRadAn=       1 diagonalized for initial guess.
 HarFok:  IExCor=  205 AccDes= 0.00D+00 IRadAn=         1 IDoV= 1 UseB2=F ITyADJ=14
 ICtDFT=  3500011 ScaDFX=  1.000000  1.000000  1.000000  1.000000
 FoFCou: FMM=F IPFlag=           0 FMFlag=      100000 FMFlg1=           0
         NFxFlg=           0 DoJE=T BraDBF=F KetDBF=T FulRan=T
         wScrn=  0.000000 ICntrl=     500 IOpCl=  0 I1Cent=   200000004 NGrid=           0
         NMat0=    1 NMatS0=      1 NMatT0=    0 NMatD0=    1 NMtDS0=    0 NMtDT0=    0
 Petite list used in FoFCou.
 Keep R1 ints in memory in canonical form, NReq=7313499.
 Requested convergence on RMS density matrix=1.00D-08 within 128 cycles.
 Requested convergence on MAX density matrix=1.00D-06.
 Requested convergence on             energy=1.00D-06.
 No special actions if energy rises.
 SCF Done:  E(RHF) =  -462.818188873     A.U. after   11 cycles
            NFock= 11  Conv=0.52D-08     -V/T= 2.0087

 **********************************************************************

            Population analysis using the SCF density.

 **********************************************************************

 Orbital symmetries:
       Occupied  (A) (A) (A) (A) (A) (A) (A) (A) (A) (A) (A) (A)
                 (A) (A) (A) (A) (A) (A) (A) (A) (A) (A) (A) (A)
                 (A) (A) (A) (A) (A) (A) (A) (A) (A) (A) (A) (A)
                 (A) (A) (A) (A) (A) (A) (A) (A) (A) (A) (A) (A)
       Virtual   (A) (A) (A) (A) (A) (A) (A) (A) (A) (A) (A) (A)
                 (A) (A) (A) (A) (A) (A) (A) (A) (A) (A) (A) (A)
                 (A) (A) (A) (A) (A) (A) (A) (A) (A) (A) (A) (A)
 The electronic state is 1-A.
 Alpha  occ. eigenvalues --  -11.04169 -11.04156 -11.04137 -11.04126 -11.03934
 Alpha  occ. eigenvalues --  -11.03903 -11.03583 -11.03551 -11.03438 -11.03305
 Alpha  occ. eigenvalues --  -11.00462 -11.00384  -1.05819  -1.04508  -1.01781
 Alpha  occ. eigenvalues --   -0.98446  -0.94397  -0.89252  -0.85127  -0.79083
 Alpha  occ. eigenvalues --   -0.77115  -0.75131  -0.74922  -0.67497  -0.62701
 Alpha  occ. eigenvalues --   -0.61408  -0.59102  -0.56519  -0.56198  -0.54867
 Alpha  occ. eigenvalues --   -0.54268  -0.52605  -0.52127  -0.50948  -0.49469
 Alpha  occ. eigenvalues --   -0.47850  -0.47310  -0.46440  -0.45223  -0.43654
 Alpha  occ. eigenvalues --   -0.43526  -0.42686  -0.42174  -0.41828  -0.41645
 Alpha  occ. eigenvalues --   -0.40812  -0.40513  -0.23993
 Alpha virt. eigenvalues --    0.27142   0.57094   0.57866   0.58063   0.58538
 Alpha virt. eigenvalues --    0.62231   0.63272   0.66153   0.66417   0.66704
 Alpha virt. eigenvalues --    0.67291   0.68276   0.68970   0.69421   0.69757
 Alpha virt. eigenvalues --    0.72047   0.72558   0.73063   0.73862   0.74220
 Alpha virt. eigenvalues --    0.74971   0.75528   0.76209   0.76611   0.77742
 Alpha virt. eigenvalues --    0.77957   0.78553   0.78675   0.80435   0.80695
 Alpha virt. eigenvalues --    0.81017   0.81244   0.81975   0.82795   0.93192
 Alpha virt. eigenvalues --    1.06513
          Condensed to atoms (all electrons):
               1          2          3          4          5          6
     1  C    4.726070   0.380232   0.380232   0.381633   0.368786  -0.022161
     2  H    0.380232   0.633534  -0.021859  -0.021528  -0.021007   0.001879
     3  H    0.380232  -0.021859   0.633550  -0.021529  -0.021012  -0.002226
     4  H    0.381633  -0.021528  -0.021529   0.628762  -0.019415  -0.002126
     5  C    0.368786  -0.021007  -0.021012  -0.019415   4.725612   0.379353
     6  H   -0.022161   0.001879  -0.002226  -0.002126   0.379353   0.645849
     7  H   -0.022172  -0.002222   0.001879  -0.002129   0.379320  -0.023853
     8  C   -0.022844  -0.002133  -0.002132   0.001240   0.368041  -0.023048
     9  H   -0.002219  -0.000006   0.000394   0.000010  -0.022686  -0.002345
    10  H   -0.002208   0.000394  -0.000006   0.000009  -0.022681   0.001943
    11  C    0.000715   0.000008   0.000008  -0.000015  -0.021606  -0.002200
    12  H    0.000007   0.000002  -0.000001  -0.000000  -0.002163   0.000002
    13  H    0.000007  -0.000001   0.000002  -0.000000  -0.002168   0.000385
    14  C   -0.000005  -0.000000  -0.000000   0.000000   0.000687   0.000006
    15  H   -0.000000   0.000000  -0.000000   0.000000   0.000006   0.000002
    16  H   -0.000000  -0.000000   0.000000   0.000000   0.000011  -0.000001
    17  C    0.000000   0.000000   0.000000  -0.000000  -0.000004  -0.000000
    18  H    0.000000  -0.000000  -0.000000  -0.000000  -0.000000  -0.000000
    19  C    0.000000  -0.000000  -0.000000  -0.000000  -0.000000  -0.000000
    20  H    0.000000   0.000000   0.000000  -0.000000  -0.000000   0.000000
    21  C   -0.000000  -0.000000  -0.000000   0.000000   0.000000  -0.000000
    22  H    0.000000   0.000000   0.000000  -0.000000  -0.000000  -0.000000
    23  H    0.000000   0.000000   0.000000  -0.000000  -0.000000  -0.000000
    24  C   -0.000000  -0.000000   0.000000   0.000000   0.000000   0.000000
    25  H   -0.000000   0.000000  -0.000000   0.000000   0.000000   0.000000
    26  H    0.000000   0.000000   0.000000  -0.000000  -0.000000  -0.000000
    27  C    0.000000   0.000000   0.000000  -0.000000  -0.000000  -0.000000
    28  H    0.000000  -0.000000   0.000000  -0.000000  -0.000000  -0.000000
    29  H    0.000000  -0.000000  -0.000000  -0.000000  -0.000000  -0.000000
    30  C   -0.000000  -0.000000  -0.000000   0.000000   0.000000   0.000000
    31  H   -0.000000  -0.000000  -0.000000   0.000000   0.000000   0.000000
    32  H   -0.000000  -0.000000  -0.000000   0.000000   0.000000   0.000000
    33  C    0.000000   0.000000   0.000000   0.000000  -0.000000  -0.000000
    34  H    0.000000  -0.000000  -0.000000   0.000000   0.000000   0.000000
    35  H    0.000000   0.000000  -0.000000   0.000000  -0.000000  -0.000000
    36  H    0.000000   0.000000   0.000000  -0.000000  -0.000000  -0.000000
               7          8          9         10         11         12
     1  C   -0.022172  -0.022844  -0.002219  -0.002208   0.000715   0.000007
     2  H   -0.002222  -0.002133  -0.000006   0.000394   0.000008   0.000002
     3  H    0.001879  -0.002132   0.000394  -0.000006   0.000008  -0.000001
     4  H   -0.002129   0.001240   0.000010   0.000009  -0.000015  -0.000000
     5  C    0.379320   0.368041  -0.022686  -0.022681  -0.021606  -0.002163
     6  H   -0.023853  -0.023048  -0.002345   0.001943  -0.002200   0.000002
     7  H    0.646031  -0.023053   0.001945  -0.002345  -0.002193   0.000393
     8  C   -0.023053   4.738094   0.378349   0.378454   0.369117  -0.022674
     9  H    0.001945   0.378349   0.649077  -0.023831  -0.022804   0.001933
    10  H   -0.002345   0.378454  -0.023831   0.648751  -0.022796  -0.002342
    11  C   -0.002193   0.369117  -0.022804  -0.022796   4.737353   0.378513
    12  H    0.000393  -0.022674   0.001933  -0.002342   0.378513   0.646434
    13  H    0.000003  -0.022498  -0.002274   0.001921   0.378311  -0.023728
    14  C    0.000006  -0.021503  -0.002177  -0.002199   0.365831  -0.022468
    15  H   -0.000001  -0.001997   0.000381  -0.000001  -0.022350   0.001885
    16  H    0.000002  -0.002553  -0.000004   0.000432  -0.023557  -0.002220
    17  C   -0.000000   0.000702   0.000007   0.000007  -0.022337  -0.002293
    18  H   -0.000000   0.000010  -0.000000   0.000001  -0.002380   0.000396
    19  C    0.000000  -0.000001   0.000001  -0.000000  -0.000134   0.000011
    20  H   -0.000000   0.000000   0.000000   0.000000  -0.000024  -0.000001
    21  C   -0.000000  -0.000000  -0.000000  -0.000000   0.000011  -0.000000
    22  H   -0.000000   0.000000  -0.000000   0.000000   0.000000  -0.000000
    23  H   -0.000000   0.000000   0.000000  -0.000000  -0.000001   0.000000
    24  C    0.000000  -0.000000  -0.000000  -0.000000   0.000002  -0.000000
    25  H    0.000000  -0.000000  -0.000000  -0.000000   0.000000  -0.000000
    26  H   -0.000000   0.000000   0.000000   0.000000  -0.000003   0.000000
    27  C   -0.000000   0.000000   0.000000   0.000000  -0.000000   0.000000
    28  H   -0.000000   0.000000  -0.000000  -0.000000   0.000000  -0.000000
    29  H   -0.000000   0.000000   0.000000  -0.000000  -0.000000   0.000000
    30  C    0.000000  -0.000000  -0.000000  -0.000000   0.000000  -0.000000
    31  H    0.000000  -0.000000  -0.000000  -0.000000   0.000000  -0.000000
    32  H    0.000000  -0.000000   0.000000  -0.000000   0.000000   0.000000
    33  C   -0.000000   0.000000   0.000000   0.000000  -0.000000   0.000000
    34  H    0.000000  -0.000000  -0.000000  -0.000000   0.000000  -0.000000
    35  H   -0.000000   0.000000  -0.000000   0.000000  -0.000000   0.000000
    36  H   -0.000000   0.000000   0.000000   0.000000  -0.000000   0.000000
              13         14         15         16         17         18
     1  C    0.000007  -0.000005  -0.000000  -0.000000   0.000000   0.000000
     2  H   -0.000001  -0.000000   0.000000  -0.000000   0.000000  -0.000000
     3  H    0.000002  -0.000000  -0.000000   0.000000   0.000000  -0.000000
     4  H   -0.000000   0.000000   0.000000   0.000000  -0.000000  -0.000000
     5  C   -0.002168   0.000687   0.000006   0.000011  -0.000004  -0.000000
     6  H    0.000385   0.000006   0.000002  -0.000001  -0.000000  -0.000000
     7  H    0.000003   0.000006  -0.000001   0.000002  -0.000000  -0.000000
     8  C   -0.022498  -0.021503  -0.001997  -0.002553   0.000702   0.000010
     9  H   -0.002274  -0.002177   0.000381  -0.000004   0.000007  -0.000000
    10  H    0.001921  -0.002199  -0.000001   0.000432   0.000007   0.000001
    11  C    0.378311   0.365831  -0.022350  -0.023557  -0.022337  -0.002380
    12  H   -0.023728  -0.022468   0.001885  -0.002220  -0.002293   0.000396
    13  H    0.645967  -0.023028  -0.002405   0.001992  -0.001510   0.000034
    14  C   -0.023028   4.728229   0.379753   0.371886   0.379780  -0.026084
    15  H   -0.002405   0.379753   0.640721  -0.022645  -0.022570   0.001688
    16  H    0.001992   0.371886  -0.022645   0.654091  -0.024793  -0.000426
    17  C   -0.001510   0.379780  -0.022570  -0.024793   4.854313   0.382879
    18  H    0.000034  -0.026084   0.001688  -0.000426   0.382879   0.628691
    19  C    0.000124  -0.027288  -0.004328   0.001179   0.576417  -0.030149
    20  H   -0.000016   0.001569   0.000028  -0.000037  -0.030238  -0.004136
    21  C    0.000003  -0.002692  -0.000189   0.000058  -0.027008   0.001538
    22  H    0.000000  -0.000193  -0.000186  -0.000068  -0.004237   0.000028
    23  H    0.000000   0.000018  -0.000000   0.000013   0.000092  -0.000043
    24  C   -0.000000   0.000011  -0.000122  -0.000007   0.000659  -0.000017
    25  H   -0.000000   0.000001  -0.000002  -0.000000   0.000010  -0.000001
    26  H    0.000001  -0.000016   0.000007   0.000001   0.000066  -0.000003
    27  C    0.000000  -0.000000   0.000003   0.000000  -0.000007   0.000000
    28  H    0.000000  -0.000000   0.000000   0.000000  -0.000000   0.000000
    29  H    0.000000   0.000000   0.000000   0.000000  -0.000000   0.000000
    30  C   -0.000000   0.000000  -0.000000  -0.000000   0.000000  -0.000000
    31  H   -0.000000  -0.000000  -0.000000  -0.000000  -0.000000  -0.000000
    32  H   -0.000000   0.000000  -0.000000  -0.000000   0.000000  -0.000000
    33  C    0.000000  -0.000000   0.000000   0.000000  -0.000000   0.000000
    34  H   -0.000000   0.000000  -0.000000  -0.000000   0.000000  -0.000000
    35  H    0.000000  -0.000000   0.000000   0.000000  -0.000000   0.000000
    36  H    0.000000  -0.000000   0.000000   0.000000  -0.000000   0.000000
              19         20         21         22         23         24
     1  C    0.000000   0.000000  -0.000000   0.000000   0.000000  -0.000000
     2  H   -0.000000   0.000000  -0.000000   0.000000   0.000000  -0.000000
     3  H   -0.000000   0.000000  -0.000000   0.000000   0.000000   0.000000
     4  H   -0.000000  -0.000000   0.000000  -0.000000  -0.000000   0.000000
     5  C   -0.000000  -0.000000   0.000000  -0.000000  -0.000000   0.000000
     6  H   -0.000000   0.000000  -0.000000  -0.000000  -0.000000   0.000000
     7  H    0.000000  -0.000000  -0.000000  -0.000000  -0.000000   0.000000
     8  C   -0.000001   0.000000  -0.000000   0.000000   0.000000  -0.000000
     9  H    0.000001   0.000000  -0.000000  -0.000000   0.000000  -0.000000
    10  H   -0.000000   0.000000  -0.000000   0.000000  -0.000000  -0.000000
    11  C   -0.000134  -0.000024   0.000011   0.000000  -0.000001   0.000002
    12  H    0.000011  -0.000001  -0.000000  -0.000000   0.000000  -0.000000
    13  H    0.000124  -0.000016   0.000003   0.000000   0.000000  -0.000000
    14  C   -0.027288   0.001569  -0.002692  -0.000193   0.000018   0.000011
    15  H   -0.004328   0.000028  -0.000189  -0.000186  -0.000000  -0.000122
    16  H    0.001179  -0.000037   0.000058  -0.000068   0.000013  -0.000007
    17  C    0.576417  -0.030238  -0.027008  -0.004237   0.000092   0.000659
    18  H   -0.030149  -0.004136   0.001538   0.000028  -0.000043  -0.000017
    19  C    4.854709   0.383138   0.379723  -0.022423  -0.022346  -0.024405
    20  H    0.383138   0.628534  -0.026162   0.001691  -0.002686  -0.000531
    21  C    0.379723  -0.026162   4.726912   0.379697   0.379368   0.359211
    22  H   -0.022423   0.001691   0.379697   0.639781  -0.023373  -0.021734
    23  H   -0.022346  -0.002686   0.379368  -0.023373   0.636896  -0.023447
    24  C   -0.024405  -0.000531   0.359211  -0.021734  -0.023447   4.744687
    25  H   -0.002446   0.000413  -0.022358   0.001884  -0.002292   0.378822
    26  H   -0.002225  -0.000010  -0.022613  -0.002420   0.001922   0.379271
    27  C    0.000775  -0.000012  -0.021956  -0.002033  -0.002277   0.368093
    28  H    0.000007   0.000001  -0.002229  -0.000001   0.000446  -0.022744
    29  H    0.000009  -0.000001  -0.002226   0.000373   0.000004  -0.022783
    30  C   -0.000005   0.000000   0.000701   0.000006   0.000006  -0.021716
    31  H   -0.000000   0.000000   0.000007   0.000002  -0.000001  -0.002212
    32  H   -0.000000  -0.000000   0.000007  -0.000001   0.000002  -0.002203
    33  C    0.000000  -0.000000  -0.000005  -0.000000  -0.000000   0.000719
    34  H   -0.000000   0.000000   0.000000   0.000000   0.000000  -0.000015
    35  H    0.000000  -0.000000  -0.000000   0.000000  -0.000000   0.000008
    36  H    0.000000  -0.000000  -0.000000  -0.000000   0.000000   0.000008
              25         26         27         28         29         30
     1  C   -0.000000   0.000000   0.000000   0.000000   0.000000  -0.000000
     2  H    0.000000   0.000000   0.000000  -0.000000  -0.000000  -0.000000
     3  H   -0.000000   0.000000   0.000000   0.000000  -0.000000  -0.000000
     4  H    0.000000  -0.000000  -0.000000  -0.000000  -0.000000   0.000000
     5  C    0.000000  -0.000000  -0.000000  -0.000000  -0.000000   0.000000
     6  H    0.000000  -0.000000  -0.000000  -0.000000  -0.000000   0.000000
     7  H    0.000000  -0.000000  -0.000000  -0.000000  -0.000000   0.000000
     8  C   -0.000000   0.000000   0.000000   0.000000   0.000000  -0.000000
     9  H   -0.000000   0.000000   0.000000  -0.000000   0.000000  -0.000000
    10  H   -0.000000   0.000000   0.000000  -0.000000  -0.000000  -0.000000
    11  C    0.000000  -0.000003  -0.000000   0.000000  -0.000000   0.000000
    12  H   -0.000000   0.000000   0.000000  -0.000000   0.000000  -0.000000
    13  H   -0.000000   0.000001   0.000000   0.000000   0.000000  -0.000000
    14  C    0.000001  -0.000016  -0.000000  -0.000000   0.000000   0.000000
    15  H   -0.000002   0.000007   0.000003   0.000000   0.000000  -0.000000
    16  H   -0.000000   0.000001   0.000000   0.000000   0.000000  -0.000000
    17  C    0.000010   0.000066  -0.000007  -0.000000  -0.000000   0.000000
    18  H   -0.000001  -0.000003   0.000000   0.000000   0.000000  -0.000000
    19  C   -0.002446  -0.002225   0.000775   0.000007   0.000009  -0.000005
    20  H    0.000413  -0.000010  -0.000012   0.000001  -0.000001   0.000000
    21  C   -0.022358  -0.022613  -0.021956  -0.002229  -0.002226   0.000701
    22  H    0.001884  -0.002420  -0.002033  -0.000001   0.000373   0.000006
    23  H   -0.002292   0.001922  -0.002277   0.000446   0.000004   0.000006
    24  C    0.378822   0.379271   0.368093  -0.022744  -0.022783  -0.021716
    25  H    0.649803  -0.023949  -0.022826  -0.002339   0.001934  -0.002153
    26  H   -0.023949   0.649164  -0.022665   0.001924  -0.002282  -0.002153
    27  C   -0.022826  -0.022665   4.740925   0.378397   0.378423   0.367831
    28  H   -0.002339   0.001924   0.378397   0.650930  -0.023921  -0.022747
    29  H    0.001934  -0.002282   0.378423  -0.023921   0.650799  -0.022783
    30  C   -0.002153  -0.002153   0.367831  -0.022747  -0.022783   4.726367
    31  H    0.000004   0.000387  -0.023027   0.001945  -0.002346   0.379341
    32  H    0.000392   0.000004  -0.023022  -0.002345   0.001947   0.379313
    33  C    0.000007   0.000007  -0.022886  -0.002208  -0.002214   0.368697
    34  H   -0.000000  -0.000000   0.001242   0.000009   0.000009  -0.019434
    35  H    0.000002  -0.000001  -0.002137   0.000393  -0.000005  -0.020996
    36  H   -0.000001   0.000002  -0.002135  -0.000005   0.000394  -0.021003
              31         32         33         34         35         36
     1  C   -0.000000  -0.000000   0.000000   0.000000   0.000000   0.000000
     2  H   -0.000000  -0.000000   0.000000  -0.000000   0.000000   0.000000
     3  H   -0.000000  -0.000000   0.000000  -0.000000  -0.000000   0.000000
     4  H    0.000000   0.000000   0.000000   0.000000   0.000000  -0.000000
     5  C    0.000000   0.000000  -0.000000   0.000000  -0.000000  -0.000000
     6  H    0.000000   0.000000  -0.000000   0.000000  -0.000000  -0.000000
     7  H    0.000000   0.000000  -0.000000   0.000000  -0.000000  -0.000000
     8  C   -0.000000  -0.000000   0.000000  -0.000000   0.000000   0.000000
     9  H   -0.000000   0.000000   0.000000  -0.000000  -0.000000   0.000000
    10  H   -0.000000  -0.000000   0.000000  -0.000000   0.000000   0.000000
    11  C    0.000000   0.000000  -0.000000   0.000000  -0.000000  -0.000000
    12  H   -0.000000   0.000000   0.000000  -0.000000   0.000000   0.000000
    13  H   -0.000000  -0.000000   0.000000  -0.000000   0.000000   0.000000
    14  C   -0.000000   0.000000  -0.000000   0.000000  -0.000000  -0.000000
    15  H   -0.000000  -0.000000   0.000000  -0.000000   0.000000   0.000000
    16  H   -0.000000  -0.000000   0.000000  -0.000000   0.000000   0.000000
    17  C   -0.000000   0.000000  -0.000000   0.000000  -0.000000  -0.000000
    18  H   -0.000000  -0.000000   0.000000  -0.000000   0.000000   0.000000
    19  C   -0.000000  -0.000000   0.000000  -0.000000   0.000000   0.000000
    20  H    0.000000  -0.000000  -0.000000   0.000000  -0.000000  -0.000000
    21  C    0.000007   0.000007  -0.000005   0.000000  -0.000000  -0.000000
    22  H    0.000002  -0.000001  -0.000000   0.000000   0.000000  -0.000000
    23  H   -0.000001   0.000002  -0.000000   0.000000  -0.000000   0.000000
    24  C   -0.002212  -0.002203   0.000719  -0.000015   0.000008   0.000008
    25  H    0.000004   0.000392   0.000007  -0.000000   0.000002  -0.000001
    26  H    0.000387   0.000004   0.000007  -0.000000  -0.000001   0.000002
    27  C   -0.023027  -0.023022  -0.022886   0.001242  -0.002137  -0.002135
    28  H    0.001945  -0.002345  -0.002208   0.000009   0.000393  -0.000005
    29  H   -0.002346   0.001947  -0.002214   0.000009  -0.000005   0.000394
    30  C    0.379341   0.379313   0.368697  -0.019434  -0.020996  -0.021003
    31  H    0.646786  -0.023884  -0.022209  -0.002124   0.001880  -0.002226
    32  H   -0.023884   0.646787  -0.022213  -0.002128  -0.002222   0.001880
    33  C   -0.022209  -0.022213   4.726420   0.381563   0.380229   0.380226
    34  H   -0.002124  -0.002128   0.381563   0.629509  -0.021558  -0.021559
    35  H    0.001880  -0.002222   0.380229  -0.021558   0.633930  -0.021871
    36  H   -0.002226   0.001880   0.380226  -0.021559  -0.021871   0.633970
 Mulliken charges:
               1
     1  C   -0.166074
     2  H    0.052710
     3  H    0.052700
     4  H    0.055089
     5  C   -0.089074
     6  H    0.048541
     7  H    0.048387
     8  C   -0.089573
     9  H    0.046253
    10  H    0.046496
    11  C   -0.087471
    12  H    0.048316
    13  H    0.048879
    14  C   -0.100125
    15  H    0.052324
    16  H    0.046645
    17  C   -0.059933
    18  H    0.047975
    19  C   -0.060343
    20  H    0.048480
    21  C   -0.099795
    22  H    0.053206
    23  H    0.057699
    24  C   -0.089554
    25  H    0.045096
    26  H    0.045584
    27  C   -0.090708
    28  H    0.044487
    29  H    0.044670
    30  C   -0.089271
    31  H    0.047676
    32  H    0.047686
    33  C   -0.166132
    34  H    0.054485
    35  H    0.052349
    36  H    0.052321
 Sum of Mulliken charges =  -0.00000
 Mulliken charges with hydrogens summed into heavy atoms:
               1
     1  C   -0.005576
     5  C    0.007854
     8  C    0.003175
    11  C    0.009724
    14  C   -0.001156
    17  C   -0.011958
    19  C   -0.011862
    21  C    0.011110
    24  C    0.001127
    27  C   -0.001551
    30  C    0.006092
    33  C   -0.006977
 Electronic spatial extent (au):  <R**2>=           5409.5319
 Charge=              0.0000 electrons
 Dipole moment (field-independent basis, Debye):
    X=              0.0972    Y=             -0.1293    Z=             -0.0187  Tot=              0.1629
 Quadrupole moment (field-independent basis, Debye-Ang):
   XX=            -75.3618   YY=            -76.4419   ZZ=            -75.6319
   XY=             -0.1357   XZ=             -0.4251   YZ=              0.0355
 Traceless Quadrupole moment (field-independent basis, Debye-Ang):
   XX=              0.4500   YY=             -0.6300   ZZ=              0.1800
   XY=             -0.1357   XZ=             -0.4251   YZ=              0.0355
 Octapole moment (field-independent basis, Debye-Ang**2):
  XXX=              3.0074  YYY=             -1.1141  ZZZ=              0.0699  XYY=              0.1510
  XXY=              8.6982  XXZ=              1.1304  XZZ=              0.1071  YZZ=              0.0444
  YYZ=              1.1584  XYZ=             -1.1980
 Hexadecapole moment (field-independent basis, Debye-Ang**3):
 XXXX=          -5857.8757 YYYY=          -1083.8979 ZZZZ=           -212.2721 XXXY=            -10.2060
 XXXZ=             -6.9093 YYYX=              9.3504 YYYZ=              0.2323 ZZZX=             -4.6582
 ZZZY=              2.4588 XXYY=          -1155.9489 XXZZ=          -1004.7161 YYZZ=           -216.2298
 XXYZ=            -10.2338 YYXZ=             -0.3808 ZZXY=             -1.2256
 N-N= 6.711557270212D+02 E-N=-2.417789182370D+03  KE= 4.588432125670D+02
 1\1\GINC-CN0003\SP\RHF\STO-3G\C12H24\GRAHA682\04-Dec-2017\0\\# hf/sto-
 3g geom=connectivity\\Title Card Required\\0,1\C,0,-6.854443,-0.134877
 ,-0.168414\H,0,-7.040212,-0.818328,0.677653\H,0,-6.884443,-0.743683,-1
 .088126\H,0,-7.697052,0.572652,-0.212848\C,0,-5.520363,0.56989,-0.0210
 4\H,0,-5.368713,1.273324,-0.861988\H,0,-5.523451,1.199843,0.889097\C,0
 ,-4.344023,-0.388597,0.042497\H,0,-4.335099,-1.020835,-0.868101\H,0,-4
 .48926,-1.094591,0.884904\C,0,-3.001393,0.302765,0.189464\H,0,-3.00708
 7,0.930311,1.102873\H,0,-2.850369,1.009328,-0.649702\C,0,-1.824677,-0.
 663624,0.246928\H,0,-1.800656,-1.277687,-0.673205\H,0,-1.994641,-1.373
 719,1.081199\C,0,-0.511885,0.023005,0.428088\H,0,-0.405457,0.634962,1.
 338635\C,0,0.511885,-0.023005,-0.428088\H,0,1.0167359,0.92079406,-0.69
 130471\C,0,1.02468891,-1.25286965,-1.10052111\H,0,0.47377653,-2.137966
 43,-0.7298537\H,0,2.08530498,-1.41746372,-0.82279257\C,0,0.92911812,-1
 .18700578,-2.6198626\H,0,1.46329079,-0.28665884,-2.9834521\H,0,-0.1286
 718,-1.03681168,-2.91100055\C,0,1.48221779,-2.41783368,-3.31367772\H,0
 ,2.54085955,-2.56310736,-3.01813738\H,0,0.95143104,-3.31846105,-2.9447
 2105\C,0,1.38451795,-2.36041713,-4.82816381\H,0,0.32628137,-2.21301603
 ,-5.11698712\H,0,1.91411066,-1.45872447,-5.19104334\C,0,1.94020614,-3.
 59664019,-5.50724282\H,0,1.862594,-3.5401857,-6.6042163\H,0,3.0048114,
 -3.74437561,-5.25777684\H,0,1.4035142,-4.50474475,-5.1836339\\Version=
 ES64L-G09RevE.01\State=1-A\HF=-462.8181889\RMSD=5.220e-09\Dipole=-0.06
 11169,-0.0134804,-0.0137155\Quadrupole=0.1706244,-0.1081842,-0.0624403
 ,0.0628303,-0.4432594,-0.2502528\PG=C01 [X(C12H24)]\\@


 IF NO USE IS MADE OF THE LABOR OF PAST AGES,
 THE WORLD MUST REMAIN ALWAYS IN THE INFANCY OF KNOWLEDGE.

                          -- CICERO
 Job cpu time:       0 days  0 hours  1 minutes  3.3 seconds.
 File lengths (MBytes):  RWF=      5 Int=      0 D2E=      0 Chk=      2 Scr=      1
 Normal termination of Gaussian 09 at Mon Dec  4 11:09:09 2017.
62.70user 0.58system 0:03.04elapsed 2078%CPU (0avgtext+0avgdata 430444maxresident)k
0inputs+15800outputs (0major+24672minor)pagefaults 0swaps
