 Entering Gaussian System, Link 0=g09
 Initial command:
 /panfs/roc/msisoft/gaussian/g09.e01_mesabi/g09/l1.exe "/scratch/graha682/4575948.mesabim3.msi.umn.edu/Gau-26171.inp" -scrdir="/scratch/graha682/4575948.mesabim3.msi.umn.edu/"
 Entering Link 1 = /panfs/roc/msisoft/gaussian/g09.e01_mesabi/g09/l1.exe PID=     26172.
  
 Copyright (c) 1988,1990,1992,1993,1995,1998,2003,2009,2015,
            Gaussian, Inc.  All Rights Reserved.
  
 This is part of the Gaussian(R) 09 program.  It is based on
 the Gaussian(R) 03 system (copyright 2003, Gaussian, Inc.),
 the Gaussian(R) 98 system (copyright 1998, Gaussian, Inc.),
 the Gaussian(R) 94 system (copyright 1995, Gaussian, Inc.),
 the Gaussian 92(TM) system (copyright 1992, Gaussian, Inc.),
 the Gaussian 90(TM) system (copyright 1990, Gaussian, Inc.),
 the Gaussian 88(TM) system (copyright 1988, Gaussian, Inc.),
 the Gaussian 86(TM) system (copyright 1986, Carnegie Mellon
 University), and the Gaussian 82(TM) system (copyright 1983,
 Carnegie Mellon University). Gaussian is a federally registered
 trademark of Gaussian, Inc.
  
 This software contains proprietary and confidential information,
 including trade secrets, belonging to Gaussian, Inc.
  
 This software is provided under written license and may be
 used, copied, transmitted, or stored only in accord with that
 written license.
  
 The following legend is applicable only to US Government
 contracts under FAR:
  
                    RESTRICTED RIGHTS LEGEND
  
 Use, reproduction and disclosure by the US Government is
 subject to restrictions as set forth in subparagraphs (a)
 and (c) of the Commercial Computer Software - Restricted
 Rights clause in FAR 52.227-19.
  
 Gaussian, Inc.
 340 Quinnipiac St., Bldg. 40, Wallingford CT 06492
  
  
 ---------------------------------------------------------------
 Warning -- This program may not be used in any manner that
 competes with the business of Gaussian, Inc. or will provide
 assistance to any competitor of Gaussian, Inc.  The licensee
 of this program is prohibited from giving any competitor of
 Gaussian, Inc. access to this program.  By using this program,
 the user acknowledges that Gaussian, Inc. is engaged in the
 business of creating and licensing software in the field of
 computational chemistry and represents and warrants to the
 licensee that it is not a competitor of Gaussian, Inc. and that
 it will not use this program in any manner prohibited above.
 ---------------------------------------------------------------
  

 Cite this work as:
 Gaussian 09, Revision E.01,
 M. J. Frisch, G. W. Trucks, H. B. Schlegel, G. E. Scuseria, 
 M. A. Robb, J. R. Cheeseman, G. Scalmani, V. Barone, B. Mennucci, 
 G. A. Petersson, H. Nakatsuji, M. Caricato, X. Li, H. P. Hratchian, 
 A. F. Izmaylov, J. Bloino, G. Zheng, J. L. Sonnenberg, M. Hada, 
 M. Ehara, K. Toyota, R. Fukuda, J. Hasegawa, M. Ishida, T. Nakajima, 
 Y. Honda, O. Kitao, H. Nakai, T. Vreven, J. A. Montgomery, Jr., 
 J. E. Peralta, F. Ogliaro, M. Bearpark, J. J. Heyd, E. Brothers, 
 K. N. Kudin, V. N. Staroverov, T. Keith, R. Kobayashi, J. Normand, 
 K. Raghavachari, A. Rendell, J. C. Burant, S. S. Iyengar, J. Tomasi, 
 M. Cossi, N. Rega, J. M. Millam, M. Klene, J. E. Knox, J. B. Cross, 
 V. Bakken, C. Adamo, J. Jaramillo, R. Gomperts, R. E. Stratmann, 
 O. Yazyev, A. J. Austin, R. Cammi, C. Pomelli, J. W. Ochterski, 
 R. L. Martin, K. Morokuma, V. G. Zakrzewski, G. A. Voth, 
 P. Salvador, J. J. Dannenberg, S. Dapprich, A. D. Daniels, 
 O. Farkas, J. B. Foresman, J. V. Ortiz, J. Cioslowski, 
 and D. J. Fox, Gaussian, Inc., Wallingford CT, 2013.
 
 ******************************************
 Gaussian 09:  ES64L-G09RevE.01 30-Nov-2015
                 4-Dec-2017 
 ******************************************
 %LindaWorkers=in-cn0069
 %NProcShared=24
 Will use up to   24 processors via shared memory.
 %Mem=59800mb
 %chk=20171201_def2svp_m06_0c12h24.chk
 SetLPE:  input flags=" -workerwait 900 -opt "Tsnet.Node.lindarsharg: ssh " "
 SetLPE:    new flags=" -workerwait 900 -opt "Tsnet.Node.lindarsharg: ssh "  -nodelist 'in-cn0069'"
 Will use up to    1 processors via Linda.
 -----------------------------
 # hf/sto-3g geom=connectivity
 -----------------------------
 1/38=1,57=2/1;
 2/12=2,17=6,18=5,40=1/2;
 3/6=3,11=9,16=1,25=1,30=1/1,2,3;
 4//1;
 5/5=2,38=5/2;
 6/7=2,8=2,9=2,10=2,28=1/1;
 99/5=1,9=1/99;
 -------------------
 Title Card Required
 -------------------
 Symbolic Z-matrix:
 Charge =  0 Multiplicity = 1
 C                    -1.03022   0.48923   6.76234 
 H                    -1.85846   1.21825   6.76428 
 H                    -0.09919   1.05754   6.92852 
 H                    -1.17179  -0.17407   7.62984 
 C                    -0.97821  -0.27783   5.45578 
 H                    -0.16206  -1.02476   5.48735 
 H                    -1.90675  -0.86592   5.32476 
 C                    -0.7836    0.61904   4.24572 
 H                     0.14654   1.20908   4.37098 
 H                    -1.59993   1.36825   4.20747 
 C                    -0.72898  -0.13512   2.93023 
 H                    -1.66106  -0.72052   2.80109 
 H                     0.08515  -0.88505   2.96224 
 C                    -0.52791   0.76935   1.72053 
 H                     0.4133    1.34004   1.83345 
 H                    -1.34036   1.5236    1.70785 
 C                    -0.51189   0.02301   0.42809 
 H                    -1.42066  -0.55289   0.18854 
 C                     0.51189  -0.02301  -0.42809 
 H                     1.42066   0.55289  -0.18854 
 C                     0.52791  -0.76935  -1.72053 
 H                    -0.4133   -1.34004  -1.83345 
 H                     1.34036  -1.5236   -1.70785 
 C                     0.72898   0.13512  -2.93023 
 H                     1.66106   0.72052  -2.80109 
 H                    -0.08515   0.88505  -2.96224 
 C                     0.7836   -0.61904  -4.24572 
 H                     1.59993  -1.36825  -4.20747 
 H                    -0.14654  -1.20908  -4.37098 
 C                     0.97821   0.27783  -5.45578 
 H                     0.16206   1.02476  -5.48735 
 H                     1.90675   0.86592  -5.32476 
 C                     1.03022  -0.48923  -6.76234 
 H                     1.17179   0.17407  -7.62984 
 H                     1.85846  -1.21825  -6.76428 
 H                     0.09919  -1.05754  -6.92852 
 
                          Input orientation:                          
 ---------------------------------------------------------------------
 Center     Atomic      Atomic             Coordinates (Angstroms)
 Number     Number       Type             X           Y           Z
 ---------------------------------------------------------------------
      1          6           0       -1.030225    0.489228    6.762340
      2          1           0       -1.858457    1.218250    6.764279
      3          1           0       -0.099193    1.057540    6.928521
      4          1           0       -1.171794   -0.174071    7.629839
      5          6           0       -0.978212   -0.277833    5.455780
      6          1           0       -0.162056   -1.024762    5.487354
      7          1           0       -1.906755   -0.865917    5.324763
      8          6           0       -0.783597    0.619041    4.245717
      9          1           0        0.146544    1.209076    4.370978
     10          1           0       -1.599927    1.368250    4.207466
     11          6           0       -0.728975   -0.135116    2.930232
     12          1           0       -1.661065   -0.720516    2.801089
     13          1           0        0.085154   -0.885054    2.962244
     14          6           0       -0.527906    0.769353    1.720531
     15          1           0        0.413297    1.340037    1.833449
     16          1           0       -1.340361    1.523600    1.707854
     17          6           0       -0.511885    0.023005    0.428088
     18          1           0       -1.420661   -0.552893    0.188542
     19          6           0        0.511885   -0.023005   -0.428088
     20          1           0        1.420661    0.552893   -0.188542
     21          6           0        0.527906   -0.769353   -1.720531
     22          1           0       -0.413297   -1.340037   -1.833449
     23          1           0        1.340361   -1.523600   -1.707854
     24          6           0        0.728975    0.135116   -2.930232
     25          1           0        1.661065    0.720516   -2.801089
     26          1           0       -0.085154    0.885054   -2.962244
     27          6           0        0.783597   -0.619041   -4.245717
     28          1           0        1.599927   -1.368250   -4.207466
     29          1           0       -0.146544   -1.209076   -4.370978
     30          6           0        0.978212    0.277833   -5.455780
     31          1           0        0.162056    1.024762   -5.487354
     32          1           0        1.906755    0.865917   -5.324763
     33          6           0        1.030225   -0.489228   -6.762340
     34          1           0        1.171794    0.174071   -7.629839
     35          1           0        1.858457   -1.218249   -6.764279
     36          1           0        0.099193   -1.057540   -6.928521
 ---------------------------------------------------------------------
                    Distance matrix (angstroms):
                    1          2          3          4          5
     1  C    0.000000
     2  H    1.103379   0.000000
     3  H    1.103365   1.774207   0.000000
     4  H    1.101164   1.777430   1.777409   0.000000
     5  C    1.515977   2.173767   2.173674   2.185125   0.000000
     6  H    2.161358   3.088594   2.533159   2.516642   1.106802
     7  H    2.161330   2.533434   3.088528   2.516385   1.106887
     8  C    2.532008   2.803128   2.803235   3.497428   1.518720
     9  H    2.760720   3.122179   2.573787   3.777735   2.157028
    10  H    2.761272   2.574224   3.122961   3.778186   2.157407
    11  C    3.894304   4.219862   4.219641   4.720583   2.541826
    12  H    4.189623   4.416407   4.757796   4.884139   2.776624
    13  H    4.192070   4.759935   4.420296   4.885884   2.777983
    14  C    5.074508   5.235577   5.233547   6.018684   3.905312
    15  H    5.205919   5.430357   5.128568   6.197029   4.204174
    16  H    5.168553   5.092062   5.386379   6.162825   4.174118
    17  C    6.372502   6.587046   6.595166   7.234607   5.058226
    18  H    6.667328   6.824143   7.054579   7.455088   5.292940
    19  C    7.371752   7.673941   7.460610   8.233334   6.074967
    20  H    7.370594   7.716024   7.295013   8.269001   6.188947
    21  C    8.716128   9.035336   8.862105   9.522225   7.349110
    22  H    8.809903   9.085937   9.089509   9.564968   7.387846
    23  H    9.023044   9.461881   9.128065   9.763435   7.631865
    24  C    9.857288  10.092152   9.936385  10.734227   8.567976
    25  H    9.937590  10.204461   9.893301  10.845720   8.725730
    26  H    9.778413   9.892465   9.892279  10.700222   8.544763
    27  C   11.211401  11.470662  11.333748  12.043686   9.866075
    28  H   11.432609  11.791080  11.523093  12.215985  10.060523
    29  H   11.296720  11.524604  11.524690  12.088920   9.905759
    30  C   12.383899  12.580179  12.455507  13.268767  11.099482
    31  H   12.319226  12.418632  12.418667  13.239226  11.079222
    32  H   12.444509  12.666724  12.417871  13.355926  11.218347
    33  C   13.715676  13.936619  13.824173  14.563070  12.383899
    34  H   14.563070  14.746639  14.640416  15.442518  13.268767
    35  H   13.936619  14.239868  14.018002  14.746639  12.580179
    36  H   13.824173  14.018002  14.018935  14.640416  12.455507
                    6          7          8          9         10
     6  H    0.000000
     7  H    1.759444   0.000000
     8  C    2.151758   2.151958   0.000000
     9  H    2.516259   3.071048   1.108600   0.000000
    10  H    3.071171   2.516743   1.108680   1.761315   0.000000
    11  C    2.766178   2.766769   1.517312   2.156185   2.156383
    12  H    3.091216   2.539771   2.156690   3.074951   2.518844
    13  H    2.541027   3.090237   2.159707   2.524615   3.076923
    14  C    4.188276   4.191160   2.542545   2.770038   2.773580
    15  H    4.390254   4.736892   2.787728   2.554870   3.112847
    16  H    4.708203   4.371799   2.751175   3.066275   2.517850
    17  C    5.178453   5.168488   3.873419   4.169733   4.156587
    18  H    5.466640   5.168659   4.270825   4.801399   4.458102
    19  C    6.037398   6.297270   4.892336   4.968152   5.280501
    20  H    6.099983   6.594031   4.952351   4.779453   5.395706
    21  C    7.245336   7.454735   6.264487   6.416081   6.651178
    22  H    7.331895   7.327702   6.397763   6.730997   6.725739
    23  H    7.367300   7.773931   6.674362   6.770887   7.211039
    24  C    8.543712   8.723193   7.349579   7.402722   7.608623
    25  H    8.664183   9.015297   7.459500   7.346496   7.757156
    26  H    8.663084   8.663637   7.246605   7.344032   7.343892
    27  C    9.787316   9.944497   8.723153   8.831494   9.004821
    28  H    9.859620  10.169196   9.004821   9.074394   9.409493
    29  H    9.860067   9.860197   8.831494   9.074974   9.074394
    30  C   11.079222  11.218347   9.866075   9.905759  10.060523
    31  H   11.169146  11.169446   9.787316   9.860067   9.859620
    32  H   11.169446  11.443536   9.944498   9.860197  10.169196
    33  C   12.319226  12.444509  11.211401  11.296720  11.432609
    34  H   13.239226  13.355926  12.043686  12.088920  12.215985
    35  H   12.418632  12.666724  11.470662  11.524604  11.791080
    36  H   12.418667  12.417871  11.333748  11.524690  11.523093
                   11         12         13         14         15
    11  C    0.000000
    12  H    1.108225   0.000000
    13  H    1.107357   1.761341   0.000000
    14  C    1.523768   2.161334   2.157489   0.000000
    15  H    2.164208   3.079803   2.516523   1.106479   0.000000
    16  H    2.149265   2.516758   3.067116   1.108662   1.767706
    17  C    2.516517   2.739447   2.757349   1.492549   2.136721
    18  H    2.858292   2.628934   3.173520   2.211862   3.106816
    19  C    3.581985   3.954215   3.524142   2.515067   2.642377
    20  H    3.849811   4.478448   3.711970   2.736481   2.392243
    21  C    4.859178   5.023846   4.705082   3.914494   4.134421
    22  H    4.923835   4.839388   4.842947   4.134421   4.616514
    23  H    5.265157   5.475771   4.877816   4.527900   4.647654
    24  C    6.045138   6.268368   6.014692   4.859178   4.923835
    25  H    6.268368   6.670646   6.186869   5.023846   4.839388
    26  H    6.014692   6.186869   6.185615   4.705082   4.842947
    27  C    7.349579   7.459500   7.246605   6.264487   6.397763
    28  H    7.608623   7.757156   7.343892   6.651178   6.725739
    29  H    7.402722   7.346496   7.344032   6.416081   6.730997
    30  C    8.567976   8.725730   8.544763   7.349110   7.387846
    31  H    8.543712   8.664183   8.663083   7.245336   7.331895
    32  H    8.723193   9.015297   8.663637   7.454735   7.327702
    33  C    9.857288   9.937590   9.778413   8.716128   8.809903
    34  H   10.734227  10.845720  10.700222   9.522225   9.564968
    35  H   10.092152  10.204461   9.892465   9.035335   9.085936
    36  H    9.936385   9.893301   9.892279   8.862105   9.089509
                   16         17         18         19         20
    16  H    0.000000
    17  C    2.139149   0.000000
    18  H    2.574214   1.102231   0.000000
    19  C    3.222584   1.335387   2.096604   0.000000
    20  H    3.487381   2.096604   3.072143   1.102231   0.000000
    21  C    4.527900   2.515067   2.736481   1.492549   2.211862
    22  H    4.647654   2.642377   2.392243   2.136721   3.106816
    23  H    5.304597   3.222584   3.487381   2.139149   2.574214
    24  C    5.265157   3.581985   3.849811   2.516517   2.858292
    25  H    5.475771   3.954215   4.478448   2.739447   2.628934
    26  H    4.877816   3.524142   3.711970   2.757349   3.173520
    27  C    6.674362   4.892336   4.952351   3.873419   4.270825
    28  H    7.211039   5.280501   5.395706   4.156587   4.458102
    29  H    6.770887   4.968152   4.779453   4.169733   4.801399
    30  C    7.631865   6.074967   6.188947   5.058226   5.292940
    31  H    7.367300   6.037398   6.099983   5.178453   5.466640
    32  H    7.773931   6.297270   6.594031   5.168488   5.168659
    33  C    9.023044   7.371752   7.370594   6.372502   6.667329
    34  H    9.763435   8.233334   8.269001   7.234607   7.455088
    35  H    9.461881   7.673941   7.716024   6.587046   6.824142
    36  H    9.128065   7.460610   7.295013   6.595166   7.054579
                   21         22         23         24         25
    21  C    0.000000
    22  H    1.106479   0.000000
    23  H    1.108662   1.767706   0.000000
    24  C    1.523768   2.164208   2.149265   0.000000
    25  H    2.161334   3.079803   2.516758   1.108225   0.000000
    26  H    2.157489   2.516523   3.067116   1.107357   1.761341
    27  C    2.542545   2.787728   2.751175   1.517312   2.156690
    28  H    2.773580   3.112847   2.517850   2.156383   2.518844
    29  H    2.770038   2.554870   3.066275   2.156185   3.074951
    30  C    3.905312   4.204174   4.174118   2.541826   2.776624
    31  H    4.188276   4.390254   4.708203   2.766178   3.091216
    32  H    4.191160   4.736892   4.371799   2.766769   2.539771
    33  C    5.074508   5.205919   5.168553   3.894304   4.189623
    34  H    6.018684   6.197029   6.162825   4.720583   4.884139
    35  H    5.235577   5.430357   5.092062   4.219862   4.416406
    36  H    5.233547   5.128568   5.386379   4.219641   4.757796
                   26         27         28         29         30
    26  H    0.000000
    27  C    2.159707   0.000000
    28  H    3.076923   1.108680   0.000000
    29  H    2.524615   1.108600   1.761315   0.000000
    30  C    2.777983   1.518720   2.157407   2.157028   0.000000
    31  H    2.541027   2.151758   3.071171   2.516259   1.106802
    32  H    3.090237   2.151958   2.516743   3.071048   1.106887
    33  C    4.192070   2.532008   2.761272   2.760720   1.515977
    34  H    4.885884   3.497428   3.778186   3.777735   2.185125
    35  H    4.759935   2.803128   2.574224   3.122179   2.173766
    36  H    4.420296   2.803235   3.122961   2.573787   2.173675
                   31         32         33         34         35
    31  H    0.000000
    32  H    1.759444   0.000000
    33  C    2.161358   2.161330   0.000000
    34  H    2.516642   2.516385   1.101164   0.000000
    35  H    3.088593   2.533433   1.103378   1.777429   0.000000
    36  H    2.533159   3.088528   1.103365   1.777409   1.774207
                   36
    36  H    0.000000
 Stoichiometry    C12H24
 Framework group  CI[X(C12H24)]
 Deg. of freedom    51
 Full point group                 CI      NOp   2
 Largest Abelian subgroup         CI      NOp   2
 Largest concise Abelian subgroup CI      NOp   2
                         Standard orientation:                         
 ---------------------------------------------------------------------
 Center     Atomic      Atomic             Coordinates (Angstroms)
 Number     Number       Type             X           Y           Z
 ---------------------------------------------------------------------
      1          6           0       -1.030225    0.489228    6.762340
      2          1           0       -1.858457    1.218250    6.764279
      3          1           0       -0.099193    1.057540    6.928521
      4          1           0       -1.171794   -0.174071    7.629839
      5          6           0       -0.978212   -0.277833    5.455780
      6          1           0       -0.162056   -1.024762    5.487354
      7          1           0       -1.906755   -0.865917    5.324763
      8          6           0       -0.783597    0.619041    4.245717
      9          1           0        0.146544    1.209076    4.370978
     10          1           0       -1.599927    1.368250    4.207466
     11          6           0       -0.728975   -0.135116    2.930232
     12          1           0       -1.661065   -0.720516    2.801089
     13          1           0        0.085154   -0.885054    2.962243
     14          6           0       -0.527906    0.769353    1.720531
     15          1           0        0.413297    1.340037    1.833449
     16          1           0       -1.340361    1.523600    1.707854
     17          6           0       -0.511885    0.023005    0.428088
     18          1           0       -1.420661   -0.552893    0.188542
     19          6           0        0.511885   -0.023005   -0.428088
     20          1           0        1.420661    0.552893   -0.188542
     21          6           0        0.527906   -0.769353   -1.720531
     22          1           0       -0.413297   -1.340037   -1.833449
     23          1           0        1.340361   -1.523600   -1.707854
     24          6           0        0.728975    0.135116   -2.930232
     25          1           0        1.661065    0.720516   -2.801089
     26          1           0       -0.085154    0.885054   -2.962243
     27          6           0        0.783597   -0.619041   -4.245717
     28          1           0        1.599927   -1.368250   -4.207466
     29          1           0       -0.146544   -1.209076   -4.370978
     30          6           0        0.978212    0.277833   -5.455780
     31          1           0        0.162056    1.024762   -5.487354
     32          1           0        1.906755    0.865917   -5.324763
     33          6           0        1.030225   -0.489228   -6.762340
     34          1           0        1.171794    0.174071   -7.629839
     35          1           0        1.858457   -1.218250   -6.764279
     36          1           0        0.099193   -1.057540   -6.928521
 ---------------------------------------------------------------------
 Rotational constants (GHZ):      6.5308272      0.1577394      0.1566128
 Standard basis: STO-3G (5D, 7F)
 There are    42 symmetry adapted cartesian basis functions of AG  symmetry.
 There are    42 symmetry adapted cartesian basis functions of AU  symmetry.
 There are    42 symmetry adapted basis functions of AG  symmetry.
 There are    42 symmetry adapted basis functions of AU  symmetry.
    84 basis functions,   252 primitive gaussians,    84 cartesian basis functions
    48 alpha electrons       48 beta electrons
       nuclear repulsion energy       651.0200403962 Hartrees.
 NAtoms=   36 NActive=   36 NUniq=   18 SFac= 4.00D+00 NAtFMM=   60 NAOKFM=F Big=F
 Integral buffers will be    131072 words long.
 Raffenetti 1 integral format.
 Two-electron integral symmetry is turned on.
 One-electron integrals computed using PRISM.
 NBasis=    84 RedAO= T EigKep=  1.32D-01  NBF=    42    42
 NBsUse=    84 1.00D-06 EigRej= -1.00D+00 NBFU=    42    42
 ExpMin= 1.69D-01 ExpMax= 7.16D+01 ExpMxC= 7.16D+01 IAcc=1 IRadAn=         1 AccDes= 0.00D+00
 Harris functional with IExCor=  205 and IRadAn=       1 diagonalized for initial guess.
 HarFok:  IExCor=  205 AccDes= 0.00D+00 IRadAn=         1 IDoV= 1 UseB2=F ITyADJ=14
 ICtDFT=  3500011 ScaDFX=  1.000000  1.000000  1.000000  1.000000
 FoFCou: FMM=F IPFlag=           0 FMFlag=      100000 FMFlg1=           0
         NFxFlg=           0 DoJE=T BraDBF=F KetDBF=T FulRan=T
         wScrn=  0.000000 ICntrl=     500 IOpCl=  0 I1Cent=   200000004 NGrid=           0
         NMat0=    1 NMatS0=      1 NMatT0=    0 NMatD0=    1 NMtDS0=    0 NMtDT0=    0
 Petite list used in FoFCou.
 Initial guess orbital symmetries:
       Occupied  (AU) (AG) (AU) (AG) (AU) (AG) (AU) (AG) (AU) (AG)
                 (AU) (AG) (AG) (AU) (AG) (AU) (AG) (AU) (AG) (AU)
                 (AG) (AU) (AG) (AU) (AG) (AU) (AU) (AG) (AU) (AG)
                 (AG) (AU) (AU) (AG) (AU) (AG) (AG) (AU) (AU) (AG)
                 (AU) (AG) (AG) (AU) (AG) (AU) (AG) (AU)
       Virtual   (AG) (AU) (AG) (AU) (AG) (AU) (AG) (AU) (AG) (AU)
                 (AG) (AU) (AG) (AU) (AU) (AG) (AG) (AU) (AU) (AG)
                 (AU) (AG) (AU) (AG) (AG) (AU) (AU) (AG) (AU) (AG)
                 (AU) (AG) (AU) (AG) (AG) (AU)
 The electronic state of the initial guess is 1-AG.
 Keep R1 ints in memory in symmetry-blocked form, NReq=9613076.
 Requested convergence on RMS density matrix=1.00D-08 within 128 cycles.
 Requested convergence on MAX density matrix=1.00D-06.
 Requested convergence on             energy=1.00D-06.
 No special actions if energy rises.
 SCF Done:  E(RHF) =  -462.874096479     A.U. after    9 cycles
            NFock=  9  Conv=0.64D-08     -V/T= 2.0090

 **********************************************************************

            Population analysis using the SCF density.

 **********************************************************************

 Orbital symmetries:
       Occupied  (AU) (AG) (AG) (AU) (AG) (AU) (AG) (AU) (AU) (AG)
                 (AG) (AU) (AG) (AU) (AG) (AU) (AG) (AU) (AG) (AU)
                 (AG) (AU) (AG) (AU) (AG) (AU) (AU) (AG) (AG) (AU)
                 (AU) (AG) (AU) (AG) (AU) (AG) (AG) (AU) (AG) (AU)
                 (AG) (AU) (AU) (AG) (AG) (AU) (AG) (AU)
       Virtual   (AG) (AU) (AU) (AG) (AG) (AU) (AG) (AU) (AG) (AU)
                 (AG) (AU) (AU) (AG) (AG) (AU) (AU) (AG) (AU) (AG)
                 (AU) (AG) (AG) (AU) (AU) (AG) (AU) (AG) (AG) (AU)
                 (AU) (AG) (AU) (AG) (AG) (AU)
 The electronic state is 1-AG.
 Alpha  occ. eigenvalues --  -11.04225 -11.04224 -11.04010 -11.04010 -11.03836
 Alpha  occ. eigenvalues --  -11.03836 -11.03708 -11.03708 -11.03350 -11.03350
 Alpha  occ. eigenvalues --  -11.00998 -11.00919  -1.05745  -1.04563  -1.01800
 Alpha  occ. eigenvalues --   -0.98654  -0.94434  -0.89521  -0.84804  -0.79235
 Alpha  occ. eigenvalues --   -0.76276  -0.75056  -0.74771  -0.69732  -0.61839
 Alpha  occ. eigenvalues --   -0.61532  -0.58068  -0.57671  -0.55697  -0.55169
 Alpha  occ. eigenvalues --   -0.53529  -0.53013  -0.52367  -0.51220  -0.48616
 Alpha  occ. eigenvalues --   -0.48040  -0.46947  -0.46395  -0.44654  -0.43634
 Alpha  occ. eigenvalues --   -0.43047  -0.42616  -0.42368  -0.42192  -0.41675
 Alpha  occ. eigenvalues --   -0.41660  -0.39190  -0.28351
 Alpha virt. eigenvalues --    0.32186   0.55038   0.57957   0.57978   0.59241
 Alpha virt. eigenvalues --    0.61302   0.63570   0.65290   0.66265   0.66862
 Alpha virt. eigenvalues --    0.67421   0.67781   0.69135   0.69742   0.70711
 Alpha virt. eigenvalues --    0.71253   0.72869   0.72938   0.73929   0.74421
 Alpha virt. eigenvalues --    0.74561   0.75224   0.76293   0.76395   0.77310
 Alpha virt. eigenvalues --    0.77930   0.78122   0.78705   0.80245   0.80586
 Alpha virt. eigenvalues --    0.80899   0.81050   0.81950   0.82466   0.95722
 Alpha virt. eigenvalues --    1.06483
          Condensed to atoms (all electrons):
               1          2          3          4          5          6
     1  C    4.726236   0.380225   0.380232   0.381599   0.368751  -0.022181
     2  H    0.380225   0.633806  -0.021867  -0.021546  -0.021004   0.001879
     3  H    0.380232  -0.021867   0.633733  -0.021544  -0.021005  -0.002226
     4  H    0.381599  -0.021546  -0.021544   0.629168  -0.019425  -0.002125
     5  C    0.368751  -0.021004  -0.021005  -0.019425   4.725929   0.379358
     6  H   -0.022181   0.001879  -0.002226  -0.002125   0.379358   0.646139
     7  H   -0.022196  -0.002222   0.001880  -0.002128   0.379308  -0.023866
     8  C   -0.022867  -0.002135  -0.002133   0.001241   0.367979  -0.023029
     9  H   -0.002217  -0.000006   0.000393   0.000009  -0.022725  -0.002346
    10  H   -0.002209   0.000394  -0.000006   0.000009  -0.022718   0.001944
    11  C    0.000717   0.000008   0.000008  -0.000015  -0.021668  -0.002206
    12  H    0.000007   0.000002  -0.000001  -0.000000  -0.002160   0.000003
    13  H    0.000007  -0.000001   0.000002  -0.000000  -0.002162   0.000386
    14  C   -0.000005  -0.000000  -0.000000   0.000000   0.000695   0.000006
    15  H   -0.000000   0.000000  -0.000000   0.000000   0.000006   0.000002
    16  H   -0.000000  -0.000000   0.000000   0.000000   0.000009  -0.000001
    17  C    0.000000   0.000000   0.000000  -0.000000  -0.000005  -0.000000
    18  H    0.000000  -0.000000  -0.000000  -0.000000   0.000000   0.000000
    19  C   -0.000000  -0.000000  -0.000000   0.000000   0.000000  -0.000000
    20  H   -0.000000  -0.000000  -0.000000   0.000000   0.000000   0.000000
    21  C    0.000000   0.000000   0.000000  -0.000000  -0.000000   0.000000
    22  H    0.000000   0.000000   0.000000  -0.000000  -0.000000  -0.000000
    23  H   -0.000000  -0.000000  -0.000000   0.000000   0.000000   0.000000
    24  C    0.000000   0.000000   0.000000  -0.000000  -0.000000  -0.000000
    25  H   -0.000000  -0.000000  -0.000000   0.000000   0.000000  -0.000000
    26  H   -0.000000  -0.000000  -0.000000   0.000000   0.000000   0.000000
    27  C    0.000000   0.000000   0.000000   0.000000  -0.000000   0.000000
    28  H    0.000000   0.000000   0.000000   0.000000  -0.000000  -0.000000
    29  H    0.000000   0.000000  -0.000000   0.000000   0.000000   0.000000
    30  C    0.000000   0.000000   0.000000   0.000000   0.000000  -0.000000
    31  H    0.000000   0.000000   0.000000   0.000000  -0.000000  -0.000000
    32  H    0.000000   0.000000   0.000000   0.000000   0.000000  -0.000000
    33  C    0.000000   0.000000   0.000000   0.000000   0.000000   0.000000
    34  H    0.000000   0.000000   0.000000   0.000000   0.000000   0.000000
    35  H    0.000000   0.000000   0.000000   0.000000   0.000000   0.000000
    36  H    0.000000   0.000000   0.000000   0.000000   0.000000   0.000000
               7          8          9         10         11         12
     1  C   -0.022196  -0.022867  -0.002217  -0.002209   0.000717   0.000007
     2  H   -0.002222  -0.002135  -0.000006   0.000394   0.000008   0.000002
     3  H    0.001880  -0.002133   0.000393  -0.000006   0.000008  -0.000001
     4  H   -0.002128   0.001241   0.000009   0.000009  -0.000015  -0.000000
     5  C    0.379308   0.367979  -0.022725  -0.022718  -0.021668  -0.002160
     6  H   -0.023866  -0.023029  -0.002346   0.001944  -0.002206   0.000003
     7  H    0.646495  -0.023040   0.001946  -0.002345  -0.002198   0.000392
     8  C   -0.023040   4.739206   0.378397   0.378405   0.368776  -0.022732
     9  H    0.001946   0.378397   0.649758  -0.023881  -0.022781   0.001934
    10  H   -0.002345   0.378405  -0.023881   0.650016  -0.022778  -0.002341
    11  C   -0.002198   0.368776  -0.022781  -0.022778   4.740039   0.378620
    12  H    0.000392  -0.022732   0.001934  -0.002341   0.378620   0.648369
    13  H    0.000003  -0.022536  -0.002278   0.001922   0.378833  -0.023835
    14  C    0.000007  -0.021746  -0.002203  -0.002216   0.363335  -0.022409
    15  H   -0.000001  -0.002023   0.000375  -0.000001  -0.021969   0.001883
    16  H    0.000002  -0.002417  -0.000000   0.000438  -0.023416  -0.002253
    17  C   -0.000000   0.000741   0.000008   0.000007  -0.023354  -0.002359
    18  H   -0.000000  -0.000000  -0.000001   0.000001  -0.001456   0.000365
    19  C    0.000000  -0.000003   0.000000  -0.000000   0.000155   0.000010
    20  H   -0.000000  -0.000001  -0.000000   0.000000   0.000039  -0.000000
    21  C   -0.000000   0.000000   0.000000   0.000000  -0.000006  -0.000000
    22  H   -0.000000   0.000000  -0.000000   0.000000  -0.000000  -0.000000
    23  H    0.000000  -0.000000  -0.000000  -0.000000   0.000001   0.000000
    24  C   -0.000000   0.000000   0.000000  -0.000000  -0.000000   0.000000
    25  H    0.000000  -0.000000   0.000000  -0.000000   0.000000  -0.000000
    26  H    0.000000  -0.000000  -0.000000  -0.000000   0.000000   0.000000
    27  C   -0.000000  -0.000000  -0.000000   0.000000   0.000000  -0.000000
    28  H   -0.000000   0.000000   0.000000   0.000000  -0.000000  -0.000000
    29  H    0.000000  -0.000000  -0.000000   0.000000   0.000000   0.000000
    30  C    0.000000  -0.000000   0.000000  -0.000000  -0.000000   0.000000
    31  H   -0.000000   0.000000   0.000000  -0.000000  -0.000000  -0.000000
    32  H    0.000000  -0.000000   0.000000  -0.000000  -0.000000   0.000000
    33  C    0.000000   0.000000   0.000000   0.000000   0.000000  -0.000000
    34  H    0.000000   0.000000   0.000000   0.000000  -0.000000   0.000000
    35  H    0.000000   0.000000   0.000000   0.000000   0.000000  -0.000000
    36  H    0.000000   0.000000  -0.000000   0.000000   0.000000  -0.000000
              13         14         15         16         17         18
     1  C    0.000007  -0.000005  -0.000000  -0.000000   0.000000   0.000000
     2  H   -0.000001  -0.000000   0.000000  -0.000000   0.000000  -0.000000
     3  H    0.000002  -0.000000  -0.000000   0.000000   0.000000  -0.000000
     4  H   -0.000000   0.000000   0.000000   0.000000  -0.000000  -0.000000
     5  C   -0.002162   0.000695   0.000006   0.000009  -0.000005   0.000000
     6  H    0.000386   0.000006   0.000002  -0.000001  -0.000000   0.000000
     7  H    0.000003   0.000007  -0.000001   0.000002  -0.000000  -0.000000
     8  C   -0.022536  -0.021746  -0.002023  -0.002417   0.000741  -0.000000
     9  H   -0.002278  -0.002203   0.000375  -0.000000   0.000008  -0.000001
    10  H    0.001922  -0.002216  -0.000001   0.000438   0.000007   0.000001
    11  C    0.378833   0.363335  -0.021969  -0.023416  -0.023354  -0.001456
    12  H   -0.023835  -0.022409   0.001883  -0.002253  -0.002359   0.000365
    13  H    0.646495  -0.022792  -0.002402   0.001957  -0.001868   0.000010
    14  C   -0.022792   4.720418   0.379337   0.376422   0.385332  -0.025232
    15  H   -0.002402   0.379337   0.640073  -0.022887  -0.022640   0.001694
    16  H    0.001957   0.376422  -0.022887   0.643943  -0.023433  -0.001553
    17  C   -0.001868   0.385332  -0.022640  -0.023433   4.818643   0.385873
    18  H    0.000010  -0.025232   0.001694  -0.001553   0.385873   0.625634
    19  C    0.000105  -0.025715  -0.004568   0.000506   0.600637  -0.029447
    20  H    0.000019  -0.004338   0.000666   0.000055  -0.029447   0.002066
    21  C   -0.000003   0.000740   0.000019  -0.000016  -0.025715  -0.004338
    22  H    0.000000   0.000019   0.000000  -0.000000  -0.004568   0.000666
    23  H   -0.000000  -0.000016  -0.000000  -0.000001   0.000506   0.000055
    24  C    0.000000  -0.000006  -0.000000   0.000001   0.000155   0.000039
    25  H    0.000000  -0.000000  -0.000000   0.000000   0.000010  -0.000000
    26  H    0.000000  -0.000003   0.000000  -0.000000   0.000105   0.000019
    27  C   -0.000000   0.000000   0.000000  -0.000000  -0.000003  -0.000001
    28  H   -0.000000   0.000000   0.000000  -0.000000  -0.000000   0.000000
    29  H   -0.000000   0.000000  -0.000000  -0.000000   0.000000  -0.000000
    30  C    0.000000  -0.000000  -0.000000   0.000000   0.000000   0.000000
    31  H    0.000000   0.000000  -0.000000   0.000000  -0.000000   0.000000
    32  H    0.000000  -0.000000  -0.000000   0.000000   0.000000  -0.000000
    33  C   -0.000000   0.000000   0.000000  -0.000000  -0.000000  -0.000000
    34  H    0.000000  -0.000000  -0.000000   0.000000   0.000000   0.000000
    35  H   -0.000000   0.000000   0.000000  -0.000000  -0.000000  -0.000000
    36  H   -0.000000   0.000000   0.000000  -0.000000  -0.000000  -0.000000
              19         20         21         22         23         24
     1  C   -0.000000  -0.000000   0.000000   0.000000  -0.000000   0.000000
     2  H   -0.000000  -0.000000   0.000000   0.000000  -0.000000   0.000000
     3  H   -0.000000  -0.000000   0.000000   0.000000  -0.000000   0.000000
     4  H    0.000000   0.000000  -0.000000  -0.000000   0.000000  -0.000000
     5  C    0.000000   0.000000  -0.000000  -0.000000   0.000000  -0.000000
     6  H   -0.000000   0.000000   0.000000  -0.000000   0.000000  -0.000000
     7  H    0.000000  -0.000000  -0.000000  -0.000000   0.000000  -0.000000
     8  C   -0.000003  -0.000001   0.000000   0.000000  -0.000000   0.000000
     9  H    0.000000  -0.000000   0.000000  -0.000000  -0.000000   0.000000
    10  H   -0.000000   0.000000   0.000000   0.000000  -0.000000  -0.000000
    11  C    0.000155   0.000039  -0.000006  -0.000000   0.000001  -0.000000
    12  H    0.000010  -0.000000  -0.000000  -0.000000   0.000000   0.000000
    13  H    0.000105   0.000019  -0.000003   0.000000  -0.000000   0.000000
    14  C   -0.025715  -0.004338   0.000740   0.000019  -0.000016  -0.000006
    15  H   -0.004568   0.000666   0.000019   0.000000  -0.000000  -0.000000
    16  H    0.000506   0.000055  -0.000016  -0.000000  -0.000001   0.000001
    17  C    0.600637  -0.029447  -0.025715  -0.004568   0.000506   0.000155
    18  H   -0.029447   0.002066  -0.004338   0.000666   0.000055   0.000039
    19  C    4.818643   0.385873   0.385332  -0.022640  -0.023433  -0.023354
    20  H    0.385873   0.625634  -0.025232   0.001694  -0.001553  -0.001456
    21  C    0.385332  -0.025232   4.720418   0.379337   0.376422   0.363335
    22  H   -0.022640   0.001694   0.379337   0.640073  -0.022887  -0.021969
    23  H   -0.023433  -0.001553   0.376422  -0.022887   0.643943  -0.023416
    24  C   -0.023354  -0.001456   0.363335  -0.021969  -0.023416   4.740039
    25  H   -0.002359   0.000365  -0.022409   0.001883  -0.002253   0.378620
    26  H   -0.001868   0.000010  -0.022792  -0.002402   0.001957   0.378833
    27  C    0.000741  -0.000000  -0.021746  -0.002023  -0.002417   0.368776
    28  H    0.000007   0.000001  -0.002216  -0.000001   0.000438  -0.022778
    29  H    0.000008  -0.000001  -0.002203   0.000375  -0.000000  -0.022781
    30  C   -0.000005   0.000000   0.000695   0.000006   0.000009  -0.021668
    31  H   -0.000000   0.000000   0.000006   0.000002  -0.000001  -0.002206
    32  H   -0.000000  -0.000000   0.000007  -0.000001   0.000002  -0.002198
    33  C    0.000000   0.000000  -0.000005  -0.000000  -0.000000   0.000717
    34  H   -0.000000  -0.000000   0.000000   0.000000   0.000000  -0.000015
    35  H    0.000000  -0.000000  -0.000000   0.000000  -0.000000   0.000008
    36  H    0.000000  -0.000000  -0.000000  -0.000000   0.000000   0.000008
              25         26         27         28         29         30
     1  C   -0.000000  -0.000000   0.000000   0.000000   0.000000   0.000000
     2  H   -0.000000  -0.000000   0.000000   0.000000   0.000000   0.000000
     3  H   -0.000000  -0.000000   0.000000   0.000000  -0.000000   0.000000
     4  H    0.000000   0.000000   0.000000   0.000000   0.000000   0.000000
     5  C    0.000000   0.000000  -0.000000  -0.000000   0.000000   0.000000
     6  H   -0.000000   0.000000   0.000000  -0.000000   0.000000  -0.000000
     7  H    0.000000   0.000000  -0.000000  -0.000000   0.000000   0.000000
     8  C   -0.000000  -0.000000  -0.000000   0.000000  -0.000000  -0.000000
     9  H    0.000000  -0.000000  -0.000000   0.000000  -0.000000   0.000000
    10  H   -0.000000  -0.000000   0.000000   0.000000   0.000000  -0.000000
    11  C    0.000000   0.000000   0.000000  -0.000000   0.000000  -0.000000
    12  H   -0.000000   0.000000  -0.000000  -0.000000   0.000000   0.000000
    13  H    0.000000   0.000000  -0.000000  -0.000000  -0.000000   0.000000
    14  C   -0.000000  -0.000003   0.000000   0.000000   0.000000  -0.000000
    15  H   -0.000000   0.000000   0.000000   0.000000  -0.000000  -0.000000
    16  H    0.000000  -0.000000  -0.000000  -0.000000  -0.000000   0.000000
    17  C    0.000010   0.000105  -0.000003  -0.000000   0.000000   0.000000
    18  H   -0.000000   0.000019  -0.000001   0.000000  -0.000000   0.000000
    19  C   -0.002359  -0.001868   0.000741   0.000007   0.000008  -0.000005
    20  H    0.000365   0.000010  -0.000000   0.000001  -0.000001   0.000000
    21  C   -0.022409  -0.022792  -0.021746  -0.002216  -0.002203   0.000695
    22  H    0.001883  -0.002402  -0.002023  -0.000001   0.000375   0.000006
    23  H   -0.002253   0.001957  -0.002417   0.000438  -0.000000   0.000009
    24  C    0.378620   0.378833   0.368776  -0.022778  -0.022781  -0.021668
    25  H    0.648369  -0.023835  -0.022732  -0.002341   0.001934  -0.002160
    26  H   -0.023835   0.646495  -0.022536   0.001922  -0.002278  -0.002162
    27  C   -0.022732  -0.022536   4.739206   0.378405   0.378397   0.367979
    28  H   -0.002341   0.001922   0.378405   0.650016  -0.023881  -0.022718
    29  H    0.001934  -0.002278   0.378397  -0.023881   0.649758  -0.022725
    30  C   -0.002160  -0.002162   0.367979  -0.022718  -0.022725   4.725929
    31  H    0.000003   0.000386  -0.023029   0.001944  -0.002346   0.379358
    32  H    0.000392   0.000003  -0.023040  -0.002345   0.001946   0.379308
    33  C    0.000007   0.000007  -0.022867  -0.002209  -0.002217   0.368751
    34  H   -0.000000  -0.000000   0.001241   0.000009   0.000009  -0.019425
    35  H    0.000002  -0.000001  -0.002135   0.000394  -0.000006  -0.021004
    36  H   -0.000001   0.000002  -0.002133  -0.000006   0.000393  -0.021005
              31         32         33         34         35         36
     1  C    0.000000   0.000000   0.000000   0.000000   0.000000   0.000000
     2  H    0.000000   0.000000   0.000000   0.000000   0.000000   0.000000
     3  H    0.000000   0.000000   0.000000   0.000000   0.000000   0.000000
     4  H    0.000000   0.000000   0.000000   0.000000   0.000000   0.000000
     5  C   -0.000000   0.000000   0.000000   0.000000   0.000000   0.000000
     6  H   -0.000000  -0.000000   0.000000   0.000000   0.000000   0.000000
     7  H   -0.000000   0.000000   0.000000   0.000000   0.000000   0.000000
     8  C    0.000000  -0.000000   0.000000   0.000000   0.000000   0.000000
     9  H    0.000000   0.000000   0.000000   0.000000   0.000000  -0.000000
    10  H   -0.000000  -0.000000   0.000000   0.000000   0.000000   0.000000
    11  C   -0.000000  -0.000000   0.000000  -0.000000   0.000000   0.000000
    12  H   -0.000000   0.000000  -0.000000   0.000000  -0.000000  -0.000000
    13  H    0.000000   0.000000  -0.000000   0.000000  -0.000000  -0.000000
    14  C    0.000000  -0.000000   0.000000  -0.000000   0.000000   0.000000
    15  H   -0.000000  -0.000000   0.000000  -0.000000   0.000000   0.000000
    16  H    0.000000   0.000000  -0.000000   0.000000  -0.000000  -0.000000
    17  C   -0.000000   0.000000  -0.000000   0.000000  -0.000000  -0.000000
    18  H    0.000000  -0.000000  -0.000000   0.000000  -0.000000  -0.000000
    19  C   -0.000000  -0.000000   0.000000  -0.000000   0.000000   0.000000
    20  H    0.000000  -0.000000   0.000000  -0.000000  -0.000000  -0.000000
    21  C    0.000006   0.000007  -0.000005   0.000000  -0.000000  -0.000000
    22  H    0.000002  -0.000001  -0.000000   0.000000   0.000000  -0.000000
    23  H   -0.000001   0.000002  -0.000000   0.000000  -0.000000   0.000000
    24  C   -0.002206  -0.002198   0.000717  -0.000015   0.000008   0.000008
    25  H    0.000003   0.000392   0.000007  -0.000000   0.000002  -0.000001
    26  H    0.000386   0.000003   0.000007  -0.000000  -0.000001   0.000002
    27  C   -0.023029  -0.023040  -0.022867   0.001241  -0.002135  -0.002133
    28  H    0.001944  -0.002345  -0.002209   0.000009   0.000394  -0.000006
    29  H   -0.002346   0.001946  -0.002217   0.000009  -0.000006   0.000393
    30  C    0.379358   0.379308   0.368751  -0.019425  -0.021004  -0.021005
    31  H    0.646139  -0.023866  -0.022181  -0.002125   0.001879  -0.002226
    32  H   -0.023866   0.646495  -0.022196  -0.002128  -0.002222   0.001880
    33  C   -0.022181  -0.022196   4.726236   0.381599   0.380225   0.380232
    34  H   -0.002125  -0.002128   0.381599   0.629168  -0.021546  -0.021544
    35  H    0.001879  -0.002222   0.380225  -0.021546   0.633806  -0.021867
    36  H   -0.002226   0.001880   0.380232  -0.021544  -0.021867   0.633733
 Mulliken charges:
               1
     1  C   -0.166098
     2  H    0.052468
     3  H    0.052533
     4  H    0.054757
     5  C   -0.089164
     6  H    0.048262
     7  H    0.047964
     8  C   -0.090081
     9  H    0.045615
    10  H    0.045358
    11  C   -0.088687
    12  H    0.046508
    13  H    0.048137
    14  C   -0.099631
    15  H    0.052436
    16  H    0.052645
    17  C   -0.058626
    18  H    0.045606
    19  C   -0.058626
    20  H    0.045606
    21  C   -0.099631
    22  H    0.052436
    23  H    0.052645
    24  C   -0.088687
    25  H    0.046508
    26  H    0.048137
    27  C   -0.090081
    28  H    0.045358
    29  H    0.045615
    30  C   -0.089164
    31  H    0.048262
    32  H    0.047964
    33  C   -0.166098
    34  H    0.054757
    35  H    0.052468
    36  H    0.052533
 Sum of Mulliken charges =  -0.00000
 Mulliken charges with hydrogens summed into heavy atoms:
               1
     1  C   -0.006341
     5  C    0.007061
     8  C    0.000892
    11  C    0.005957
    14  C    0.005450
    17  C   -0.013019
    19  C   -0.013019
    21  C    0.005450
    24  C    0.005957
    27  C    0.000892
    30  C    0.007061
    33  C   -0.006341
 Electronic spatial extent (au):  <R**2>=           7047.2235
 Charge=             -0.0000 electrons
 Dipole moment (field-independent basis, Debye):
    X=              0.0000    Y=             -0.0000    Z=              0.0000  Tot=              0.0000
 Quadrupole moment (field-independent basis, Debye-Ang):
   XX=            -74.3503   YY=            -75.9970   ZZ=            -76.4927
   XY=              0.2736   XZ=             -0.1527   YZ=              0.2517
 Traceless Quadrupole moment (field-independent basis, Debye-Ang):
   XX=              1.2630   YY=             -0.3837   ZZ=             -0.8794
   XY=              0.2736   XZ=             -0.1527   YZ=              0.2517
 Octapole moment (field-independent basis, Debye-Ang**2):
  XXX=              0.0000  YYY=             -0.0000  ZZZ=              0.0000  XYY=             -0.0000
  XXY=              0.0000  XXZ=             -0.0000  XZZ=              0.0000  YZZ=             -0.0000
  YYZ=              0.0000  XYZ=              0.0000
 Hexadecapole moment (field-independent basis, Debye-Ang**3):
 XXXX=           -431.1514 YYYY=           -264.3165 ZZZZ=          -8746.3924 XXXY=             38.4149
 XXXZ=            745.7058 YYYX=             36.5685 YYYZ=           -224.6799 ZZZX=            773.7158
 ZZZY=           -263.9789 XXYY=           -109.2181 XXZZ=          -1494.7081 YYZZ=          -1477.8806
 XXYZ=            -69.3022 YYXZ=            250.3826 ZZXY=             17.2466
 N-N= 6.510200403962D+02 E-N=-2.377457651989D+03  KE= 4.587544251655D+02
 Symmetry AG   KE= 2.297460079126D+02
 Symmetry AU   KE= 2.290084172529D+02
 1\1\GINC-CN0069\SP\RHF\STO-3G\C12H24\GRAHA682\04-Dec-2017\0\\# hf/sto-
 3g geom=connectivity\\Title Card Required\\0,1\C,0,-1.03022469,0.48922
 767,6.76233963\H,0,-1.85845654,1.21824962,6.76427871\H,0,-0.09919305,1
 .05753975,6.92852137\H,0,-1.17179373,-0.17407066,7.62983899\C,0,-0.978
 2118,-0.27783275,5.45578001\H,0,-0.1620556,-1.02476164,5.48735439\H,0,
 -1.90675453,-0.86591666,5.3247632\C,0,-0.78359673,0.61904114,4.2457171
 \H,0,0.14654408,1.20907594,4.37097781\H,0,-1.59992654,1.36824962,4.207
 46574\C,0,-0.7289751,-0.13511578,2.93023245\H,0,-1.66106458,-0.7205161
 6,2.80108917\H,0,0.08515413,-0.88505443,2.9622435\C,0,-0.52790645,0.76
 935319,1.72053098\H,0,0.41329713,1.34003732,1.83344935\H,0,-1.34036085
 ,1.52359977,1.70785375\C,0,-0.511885,0.023005,0.428088\H,0,-1.42066071
 ,-0.55289311,0.18854216\C,0,0.511885,-0.023005,-0.428088\H,0,1.4206607
 1,0.55289309,-0.18854215\C,0,0.52790644,-0.76935319,-1.72053098\H,0,-0
 .41329712,-1.34003732,-1.83344936\H,0,1.34036085,-1.52359977,-1.707853
 74\C,0,0.72897512,0.1351158,-2.93023246\H,0,1.6610646,0.72051616,-2.80
 108917\H,0,-0.08515414,0.88505443,-2.9622435\C,0,0.78359672,-0.6190411
 2,-4.24571708\H,0,1.59992654,-1.36824961,-4.20746573\H,0,-0.1465441,-1
 .20907592,-4.37097781\C,0,0.97821181,0.27783277,-5.45577999\H,0,0.1620
 556,1.02476163,-5.48735439\H,0,1.90675451,0.86591667,-5.32476321\C,0,1
 .03022467,-0.48922765,-6.76233964\H,0,1.17179373,0.17407067,-7.6298389
 9\H,0,1.85845658,-1.2182486,-6.76427875\H,0,0.09919305,-1.05753973,-6.
 92852136\\Version=ES64L-G09RevE.01\State=1-AG\HF=-462.8740965\RMSD=6.4
 38e-09\Dipole=0.,0.,0.\Quadrupole=0.9390346,-0.2852462,-0.6537884,0.20
 34253,-0.1134959,0.1871386\PG=CI [X(C12H24)]\\@


 If fifty million people say a stupid thing,
 it is still a stupid thing.
                   -- Anatole France
 Job cpu time:       0 days  0 hours  1 minutes  9.3 seconds.
 File lengths (MBytes):  RWF=      5 Int=      0 D2E=      0 Chk=      7 Scr=      1
 Normal termination of Gaussian 09 at Mon Dec  4 11:07:00 2017.
68.50user 0.78system 0:03.57elapsed 1937%CPU (0avgtext+0avgdata 432660maxresident)k
191664inputs+14960outputs (186major+21400minor)pagefaults 0swaps
