 Entering Gaussian System, Link 0=g09
 Initial command:
 /soft/gaussian/g09.d01_itasca/g09/l1.exe "/scratch/jgoodpas/2034002.node1081.localdomain/Gau-30460.inp" -scrdir="/scratch/jgoodpas/2034002.node1081.localdomain/"
 Entering Link 1 = /soft/gaussian/g09.d01_itasca/g09/l1.exe PID=     30461.
  
 Copyright (c) 1988,1990,1992,1993,1995,1998,2003,2009,2013,
            Gaussian, Inc.  All Rights Reserved.
  
 This is part of the Gaussian(R) 09 program.  It is based on
 the Gaussian(R) 03 system (copyright 2003, Gaussian, Inc.),
 the Gaussian(R) 98 system (copyright 1998, Gaussian, Inc.),
 the Gaussian(R) 94 system (copyright 1995, Gaussian, Inc.),
 the Gaussian 92(TM) system (copyright 1992, Gaussian, Inc.),
 the Gaussian 90(TM) system (copyright 1990, Gaussian, Inc.),
 the Gaussian 88(TM) system (copyright 1988, Gaussian, Inc.),
 the Gaussian 86(TM) system (copyright 1986, Carnegie Mellon
 University), and the Gaussian 82(TM) system (copyright 1983,
 Carnegie Mellon University). Gaussian is a federally registered
 trademark of Gaussian, Inc.
  
 This software contains proprietary and confidential information,
 including trade secrets, belonging to Gaussian, Inc.
  
 This software is provided under written license and may be
 used, copied, transmitted, or stored only in accord with that
 written license.
  
 The following legend is applicable only to US Government
 contracts under FAR:
  
                    RESTRICTED RIGHTS LEGEND
  
 Use, reproduction and disclosure by the US Government is
 subject to restrictions as set forth in subparagraphs (a)
 and (c) of the Commercial Computer Software - Restricted
 Rights clause in FAR 52.227-19.
  
 Gaussian, Inc.
 340 Quinnipiac St., Bldg. 40, Wallingford CT 06492
  
  
 ---------------------------------------------------------------
 Warning -- This program may not be used in any manner that
 competes with the business of Gaussian, Inc. or will provide
 assistance to any competitor of Gaussian, Inc.  The licensee
 of this program is prohibited from giving any competitor of
 Gaussian, Inc. access to this program.  By using this program,
 the user acknowledges that Gaussian, Inc. is engaged in the
 business of creating and licensing software in the field of
 computational chemistry and represents and warrants to the
 licensee that it is not a competitor of Gaussian, Inc. and that
 it will not use this program in any manner prohibited above.
 ---------------------------------------------------------------
  

 Cite this work as:
 Gaussian 09, Revision D.01,
 M. J. Frisch, G. W. Trucks, H. B. Schlegel, G. E. Scuseria, 
 M. A. Robb, J. R. Cheeseman, G. Scalmani, V. Barone, B. Mennucci, 
 G. A. Petersson, H. Nakatsuji, M. Caricato, X. Li, H. P. Hratchian, 
 A. F. Izmaylov, J. Bloino, G. Zheng, J. L. Sonnenberg, M. Hada, 
 M. Ehara, K. Toyota, R. Fukuda, J. Hasegawa, M. Ishida, T. Nakajima, 
 Y. Honda, O. Kitao, H. Nakai, T. Vreven, J. A. Montgomery, Jr., 
 J. E. Peralta, F. Ogliaro, M. Bearpark, J. J. Heyd, E. Brothers, 
 K. N. Kudin, V. N. Staroverov, T. Keith, R. Kobayashi, J. Normand, 
 K. Raghavachari, A. Rendell, J. C. Burant, S. S. Iyengar, J. Tomasi, 
 M. Cossi, N. Rega, J. M. Millam, M. Klene, J. E. Knox, J. B. Cross, 
 V. Bakken, C. Adamo, J. Jaramillo, R. Gomperts, R. E. Stratmann, 
 O. Yazyev, A. J. Austin, R. Cammi, C. Pomelli, J. W. Ochterski, 
 R. L. Martin, K. Morokuma, V. G. Zakrzewski, G. A. Voth, 
 P. Salvador, J. J. Dannenberg, S. Dapprich, A. D. Daniels, 
 O. Farkas, J. B. Foresman, J. V. Ortiz, J. Cioslowski, 
 and D. J. Fox, Gaussian, Inc., Wallingford CT, 2013.
 
 ******************************************
 Gaussian 09:  ES64L-G09RevD.01 24-Apr-2013
                17-Oct-2017 
 ******************************************
 %LindaWorkers=ic-node0201
 %Mem=11800mb
 %NProcShared=8
 Will use up to    8 processors via shared memory.
 %chk=dimer.chk
 SetLPE:  input flags=" -workerwait 250000 -opt "Tsnet.Node.lindarsharg: ssh " "
 SetLPE:    new flags=" -workerwait 250000 -opt "Tsnet.Node.lindarsharg: ssh "  -nodelist 'ic-node0201'"
 Will use up to    1 processors via Linda.
 -------------------------------------------------------------
 # Opt=(Z-mat,maxcycle=200) m06/def2svp Integral=SuperFineGrid
 -------------------------------------------------------------
 1/6=200,10=7,14=-1,18=40,26=5,38=1/1,3;
 2/12=2,17=6,18=5,29=3,40=1/2;
 3/5=43,7=101,11=2,16=1,25=1,30=1,71=1,74=-54,75=-7/1,2,3;
 4//1;
 5/5=2,38=5/2;
 6/7=2,8=2,9=2,10=2,28=1/1;
 7/29=1/1,2,3,16;
 1/6=200,10=7,14=-1,18=40,26=5/3(2);
 2/29=3/2;
 99//99;
 2/29=3/2;
 3/5=43,7=101,11=2,16=1,25=1,30=1,71=1,74=-54,75=-7/1,2,3;
 4/5=5,16=3,69=1/1;
 5/5=2,38=5/2;
 7//1,2,3,16;
 1/6=200,14=-1,18=40,26=5/3(-5);
 2/29=3/2;
 6/7=2,8=2,9=2,10=2,19=2,28=1/1;
 99/9=1/99;
 ------
 C12H24
 ------
 Symbolic Z-matrix:
 Charge =  0 Multiplicity = 1
 C
 C                    1    B1
 H                    1    B2       2    A2
 H                    1    B3       2    A3       3    D3       0
 H                    1    B4       2    A4       3    D4       0
 C                    2    B5       1    A5       3    D5       0
 H                    2    B6       1    A6       3    D6       0
 H                    2    B7       1    A7       3    D7       0
 C                    6    B8       2    A8       1    D8       0
 H                    6    B9       2    A9       1    D9       0
 H                    6    B10      2    A10      1    D10      0
 C                    9    B11      6    A11      2    D11      0
 H                    9    B12      6    A12      2    D12      0
 H                    9    B13      6    A13      2    D13      0
 C                    12   B14      9    A14      6    D14      0
 H                    12   B15      9    A15      6    D15      0
 H                    12   B16      9    A16      6    D16      0
 C                    15   B17      12   A17      9    D17      0
 H                    15   B18      12   A18      9    D18      0
 H                    15   B19      12   A19      9    D19      0
 C                    18   B20      15   A20      12   D20      0
 H                    18   B21      15   A21      12   D21      0
 H                    18   B22      15   A22      12   D22      0
 C                    21   B23      18   A23      15   D23      0
 H                    21   B24      18   A24      15   D24      0
 H                    21   B25      18   A25      15   D25      0
 C                    24   B26      21   A26      18   D26      0
 H                    24   B27      21   A27      18   D27      0
 H                    24   B28      21   A28      18   D28      0
 C                    27   B29      24   A29      21   D29      0
 H                    27   B30      24   A30      21   D30      0
 H                    27   B31      24   A31      21   D31      0
 C                    30   B32      27   A32      24   D32      0
 H                    33   B33      30   A33      27   D33      0
 H                    33   B34      30   A34      27   D34      0
 H                    30   B35      27   A35      24   D35      0
       Variables:
  B1                    1.52037                  
  B2                    1.09449                  
  A2                  110.2615                   
  B3                    1.09469                  
  A3                  110.99941                  
  D3                  240.2622                   
  B4                    1.09468                  
  A4                  111.00291                  
  D4                  119.74267                  
  B5                    1.52846                  
  A5                  111.49348                  
  D5                  180.02355                  
  B6                    1.09622                  
  A6                  109.14402                  
  D6                   58.466                    
  B7                    1.09622                  
  A7                  109.14651                  
  D7                  301.57536                  
  B8                    1.52957                  
  A8                  111.33085                  
  D8                  180.06732                  
  B9                    1.09685                  
  A9                  109.56808                  
  D9                   58.69294                  
  B10                   1.09685                  
  A10                 109.56982                  
  D10                 301.43153                  
  B11                   1.52959                  
  A11                 111.32932                  
  D11                 180.0495                   
  B12                   1.09682                  
  A12                 109.56214                  
  D12                  58.69169                  
  B13                   1.09682                  
  A13                 109.57144                  
  D13                 301.40424                  
  B14                   1.52958                  
  A14                 111.33412                  
  D14                 180.11548                  
  B15                   1.09681                  
  A15                 109.56324                  
  D15                  58.75236                  
  B16                   1.09681                  
  A16                 109.56894                  
  D16                 301.4668                   
  B17                   1.52958                  
  A17                 111.32441                  
  D17                 180.06818                  
  B18                   1.09681                  
  A18                 109.56207                  
  D18                  58.71257                  
  B19                   1.09681                  
  A19                 109.57415                  
  D19                 301.42268                  
  B20                   1.5296                   
  A20                 111.33392                  
  D20                 180.12584                  
  B21                   1.09681                  
  A21                 109.56096                  
  D21                  58.76319                  
  B22                   1.09681                  
  A22                 109.57002                  
  D22                 301.47796                  
  B23                   1.53006                  
  A23                 111.33208                  
  D23                 180.06793                  
  B24                   1.09681                  
  A24                 109.55355                  
  D24                  58.71484                  
  B25                   1.09681                  
  A25                 109.57481                  
  D25                 301.41764                  
  B26                   1.52997                  
  A26                 111.27387                  
  D26                 180.07455                  
  B27                   1.09745                  
  A27                 109.45602                  
  D27                  58.51678                  
  B28                   1.09744                  
  A28                 109.4982                   
  D28                 301.54273                  
  B29                   1.50175                  
  A29                 111.29171                  
  D29                 180.59371                  
  B30                   1.0969                   
  A30                 109.65896                  
  D30                  57.82495                  
  B31                   1.09657                  
  A31                 109.82846                  
  D31                 300.6713                   
  B32                   1.33889                  
  A32                 124.10415                  
  D32                 241.95558                  
  B33                   1.08555                  
  A33                 121.75919                  
  B34                   1.08571                  
  A34                 120.7488                   
  B35                   1.08828                  
  A35                 116.90896                  
  D35                  62.58421                  
       Constants:
  D33                  75.                       
  D34                 255.                       
 

 GradGradGradGradGradGradGradGradGradGradGradGradGradGradGradGradGradGrad
 Berny optimization.
 Initialization pass.
                       ----------------------------
                       !    Initial Parameters    !
                       ! (Angstroms and Degrees)  !
 ----------------------                            ----------------------
 !      Name          Value   Derivative information (Atomic Units)     !
 ------------------------------------------------------------------------
 !       B1          1.5204   estimate D2E/DX2                          !
 !       B2          1.0945   estimate D2E/DX2                          !
 !       A2        110.2615   estimate D2E/DX2                          !
 !       B3          1.0947   estimate D2E/DX2                          !
 !       A3        110.9994   estimate D2E/DX2                          !
 !       D3        240.2622   estimate D2E/DX2                          !
 !       B4          1.0947   estimate D2E/DX2                          !
 !       A4        111.0029   estimate D2E/DX2                          !
 !       D4        119.7427   estimate D2E/DX2                          !
 !       B5          1.5285   estimate D2E/DX2                          !
 !       A5        111.4935   estimate D2E/DX2                          !
 !       D5        180.0236   estimate D2E/DX2                          !
 !       B6          1.0962   estimate D2E/DX2                          !
 !       A6        109.144    estimate D2E/DX2                          !
 !       D6         58.466    estimate D2E/DX2                          !
 !       B7          1.0962   estimate D2E/DX2                          !
 !       A7        109.1465   estimate D2E/DX2                          !
 !       D7        301.5754   estimate D2E/DX2                          !
 !       B8          1.5296   estimate D2E/DX2                          !
 !       A8        111.3308   estimate D2E/DX2                          !
 !       D8        180.0673   estimate D2E/DX2                          !
 !       B9          1.0969   estimate D2E/DX2                          !
 !       A9        109.5681   estimate D2E/DX2                          !
 !       D9         58.6929   estimate D2E/DX2                          !
 !       B10         1.0969   estimate D2E/DX2                          !
 !       A10       109.5698   estimate D2E/DX2                          !
 !       D10       301.4315   estimate D2E/DX2                          !
 !       B11         1.5296   estimate D2E/DX2                          !
 !       A11       111.3293   estimate D2E/DX2                          !
 !       D11       180.0495   estimate D2E/DX2                          !
 !       B12         1.0968   estimate D2E/DX2                          !
 !       A12       109.5621   estimate D2E/DX2                          !
 !       D12        58.6917   estimate D2E/DX2                          !
 !       B13         1.0968   estimate D2E/DX2                          !
 !       A13       109.5714   estimate D2E/DX2                          !
 !       D13       301.4042   estimate D2E/DX2                          !
 !       B14         1.5296   estimate D2E/DX2                          !
 !       A14       111.3341   estimate D2E/DX2                          !
 !       D14       180.1155   estimate D2E/DX2                          !
 !       B15         1.0968   estimate D2E/DX2                          !
 !       A15       109.5632   estimate D2E/DX2                          !
 !       D15        58.7524   estimate D2E/DX2                          !
 !       B16         1.0968   estimate D2E/DX2                          !
 !       A16       109.5689   estimate D2E/DX2                          !
 !       D16       301.4668   estimate D2E/DX2                          !
 !       B17         1.5296   estimate D2E/DX2                          !
 !       A17       111.3244   estimate D2E/DX2                          !
 !       D17       180.0682   estimate D2E/DX2                          !
 !       B18         1.0968   estimate D2E/DX2                          !
 !       A18       109.5621   estimate D2E/DX2                          !
 !       D18        58.7126   estimate D2E/DX2                          !
 !       B19         1.0968   estimate D2E/DX2                          !
 !       A19       109.5742   estimate D2E/DX2                          !
 !       D19       301.4227   estimate D2E/DX2                          !
 !       B20         1.5296   estimate D2E/DX2                          !
 !       A20       111.3339   estimate D2E/DX2                          !
 !       D20       180.1258   estimate D2E/DX2                          !
 !       B21         1.0968   estimate D2E/DX2                          !
 !       A21       109.561    estimate D2E/DX2                          !
 !       D21        58.7632   estimate D2E/DX2                          !
 !       B22         1.0968   estimate D2E/DX2                          !
 !       A22       109.57     estimate D2E/DX2                          !
 !       D22       301.478    estimate D2E/DX2                          !
 !       B23         1.5301   estimate D2E/DX2                          !
 !       A23       111.3321   estimate D2E/DX2                          !
 !       D23       180.0679   estimate D2E/DX2                          !
 !       B24         1.0968   estimate D2E/DX2                          !
 !       A24       109.5536   estimate D2E/DX2                          !
 !       D24        58.7148   estimate D2E/DX2                          !
 !       B25         1.0968   estimate D2E/DX2                          !
 !       A25       109.5748   estimate D2E/DX2                          !
 !       D25       301.4176   estimate D2E/DX2                          !
 !       B26         1.53     estimate D2E/DX2                          !
 !       A26       111.2739   estimate D2E/DX2                          !
 !       D26       180.0745   estimate D2E/DX2                          !
 !       B27         1.0975   estimate D2E/DX2                          !
 !       A27       109.456    estimate D2E/DX2                          !
 !       D27        58.5168   estimate D2E/DX2                          !
 !       B28         1.0974   estimate D2E/DX2                          !
 !       A28       109.4982   estimate D2E/DX2                          !
 !       D28       301.5427   estimate D2E/DX2                          !
 !       B29         1.5018   estimate D2E/DX2                          !
 !       A29       111.2917   estimate D2E/DX2                          !
 !       D29       180.5937   estimate D2E/DX2                          !
 !       B30         1.0969   estimate D2E/DX2                          !
 !       A30       109.659    estimate D2E/DX2                          !
 !       D30        57.8249   estimate D2E/DX2                          !
 !       B31         1.0966   estimate D2E/DX2                          !
 !       A31       109.8285   estimate D2E/DX2                          !
 !       D31       300.6713   estimate D2E/DX2                          !
 !       B32         1.3389   estimate D2E/DX2                          !
 !       A32       124.1042   estimate D2E/DX2                          !
 !       D32       241.9556   estimate D2E/DX2                          !
 !       B33         1.0856   estimate D2E/DX2                          !
 !       A33       121.7592   estimate D2E/DX2                          !
 !       B34         1.0857   estimate D2E/DX2                          !
 !       A34       120.7488   estimate D2E/DX2                          !
 !       B35         1.0883   estimate D2E/DX2                          !
 !       A35       116.909    estimate D2E/DX2                          !
 !       D35        62.5842   estimate D2E/DX2                          !
 !       D33        75.0      Frozen                                    !
 !       D34       255.0      Frozen                                    !
 ------------------------------------------------------------------------
 Trust Radius=3.00D-01 FncErr=1.00D-07 GrdErr=1.00D-07
 Number of steps in this run=    200 maximum allowed number of steps=    204.
 GradGradGradGradGradGradGradGradGradGradGradGradGradGradGradGradGradGrad

 ---------------------------------------------------------------------------------------------------
                            Z-MATRIX (ANGSTROMS AND DEGREES)
   CD    Cent   Atom    N1       Length/X        N2       Alpha/Y        N3        Beta/Z          J
 ---------------------------------------------------------------------------------------------------
      1      1  C 
      2      2  C        1   1.520370(     1)
      3      3  H        1   1.094490(     2)      2  110.262(    36)
      4      4  H        1   1.094690(     3)      2  110.999(    37)      3  240.262(    70)      0
      5      5  H        1   1.094680(     4)      2  111.003(    38)      3  119.743(    71)      0
      6      6  C        2   1.528460(     5)      1  111.493(    39)      3  180.024(    72)      0
      7      7  H        2   1.096220(     6)      1  109.144(    40)      3   58.466(    73)      0
      8      8  H        2   1.096220(     7)      1  109.147(    41)      3  301.575(    74)      0
      9      9  C        6   1.529570(     8)      2  111.331(    42)      1  180.067(    75)      0
     10     10  H        6   1.096850(     9)      2  109.568(    43)      1   58.693(    76)      0
     11     11  H        6   1.096850(    10)      2  109.570(    44)      1  301.432(    77)      0
     12     12  C        9   1.529590(    11)      6  111.329(    45)      2  180.050(    78)      0
     13     13  H        9   1.096820(    12)      6  109.562(    46)      2   58.692(    79)      0
     14     14  H        9   1.096820(    13)      6  109.571(    47)      2  301.404(    80)      0
     15     15  C       12   1.529580(    14)      9  111.334(    48)      6  180.115(    81)      0
     16     16  H       12   1.096810(    15)      9  109.563(    49)      6   58.752(    82)      0
     17     17  H       12   1.096810(    16)      9  109.569(    50)      6  301.467(    83)      0
     18     18  C       15   1.529580(    17)     12  111.324(    51)      9  180.068(    84)      0
     19     19  H       15   1.096810(    18)     12  109.562(    52)      9   58.713(    85)      0
     20     20  H       15   1.096810(    19)     12  109.574(    53)      9  301.423(    86)      0
     21     21  C       18   1.529600(    20)     15  111.334(    54)     12  180.126(    87)      0
     22     22  H       18   1.096810(    21)     15  109.561(    55)     12   58.763(    88)      0
     23     23  H       18   1.096810(    22)     15  109.570(    56)     12  301.478(    89)      0
     24     24  C       21   1.530060(    23)     18  111.332(    57)     15  180.068(    90)      0
     25     25  H       21   1.096810(    24)     18  109.554(    58)     15   58.715(    91)      0
     26     26  H       21   1.096810(    25)     18  109.575(    59)     15  301.418(    92)      0
     27     27  C       24   1.529970(    26)     21  111.274(    60)     18  180.075(    93)      0
     28     28  H       24   1.097450(    27)     21  109.456(    61)     18   58.517(    94)      0
     29     29  H       24   1.097440(    28)     21  109.498(    62)     18  301.543(    95)      0
     30     30  C       27   1.501750(    29)     24  111.292(    63)     21  180.594(    96)      0
     31     31  H       27   1.096900(    30)     24  109.659(    64)     21   57.825(    97)      0
     32     32  H       27   1.096570(    31)     24  109.828(    65)     21  300.671(    98)      0
     33     33  C       30   1.338890(    32)     27  124.104(    66)     24  241.956(    99)      0
     34     34  H       33   1.085550(    33)     30  121.759(    67)     27   75.000(   100)      0
     35     35  H       33   1.085710(    34)     30  120.749(    68)     27  255.000(   101)      0
     36     36  H       30   1.088280(    35)     27  116.909(    69)     24   62.584(   102)      0
 ---------------------------------------------------------------------------------------------------
                         Z-Matrix orientation:                         
 ---------------------------------------------------------------------
 Center     Atomic      Atomic             Coordinates (Angstroms)
 Number     Number       Type             X           Y           Z
 ---------------------------------------------------------------------
      1          6           0        0.000000    0.000000    0.000000
      2          6           0        0.000000    0.000000    1.520370
      3          1           0        1.026765    0.000000   -0.379028
      4          1           0       -0.506937    0.887394   -0.392291
      5          1           0       -0.506996   -0.887322   -0.392350
      6          6           0       -1.422170   -0.000585    2.080391
      7          1           0        0.541621    0.882669    1.879869
      8          1           0        0.542250   -0.882265    1.879914
      9          6           0       -1.417829    0.001091    3.609954
     10          1           0       -1.960390   -0.883823    1.715305
     11          1           0       -1.961845    0.881033    1.713538
     12          6           0       -2.841064   -0.000725    4.170352
     13          1           0       -0.880476    0.884957    3.974709
     14          1           0       -0.877544   -0.880117    3.976802
     15          6           0       -2.836857    0.003823    5.699919
     16          1           0       -3.377699   -0.885606    3.807035
     17          1           0       -3.382035    0.879433    3.802024
     18          6           0       -4.260172    0.000310    6.260077
     19          1           0       -2.301279    0.889417    6.063059
     20          1           0       -2.294922   -0.875633    6.068507
     21          6           0       -4.256232    0.007986    7.789653
     22          1           0       -4.794941   -0.886396    5.898461
     23          1           0       -4.802856    0.878620    5.889863
     24          6           0       -5.680003    0.002782    8.349950
     25          1           0       -3.722490    0.895453    8.150919
     26          1           0       -3.712685   -0.869677    8.160135
     27          6           0       -5.674519    0.012323    9.879880
     28          1           0       -6.213070   -0.884521    7.985355
     29          1           0       -6.223979    0.879534    7.976089
     30          6           0       -7.071612   -0.007278   10.430335
     31          1           0       -5.128482    0.892261   10.241464
     32          1           0       -5.141577   -0.869376   10.255440
     33          6           0       -7.595135    0.967368   11.184400
     34          1           0       -7.908616    1.914666   10.756877
     35          1           0       -7.721139    0.834292   12.254531
     36          1           0       -7.679357   -0.880293   10.200458
 ---------------------------------------------------------------------
                    Distance matrix (angstroms):
                    1          2          3          4          5
     1  C    0.000000
     2  C    1.520370   0.000000
     3  H    1.094490   2.159157   0.000000
     4  H    1.094690   2.168577   1.771972   0.000000
     5  H    1.094680   2.168613   1.771988   1.774717   0.000000
     6  C    2.520038   1.528460   3.470738   2.782142   2.781779
     7  H    2.146244   1.096220   2.473274   2.502440   3.065199
     8  H    2.146276   1.096220   2.473047   3.065192   2.502823
     9  C    3.878402   2.525193   4.678463   4.199193   4.199682
    10  H    2.750735   2.159230   3.753727   3.113149   2.560191
    11  H    2.749776   2.159252   3.753244   2.559554   3.111018
    12  C    5.046135   3.885106   5.971344   5.201405   5.201170
    13  H    4.166137   2.753574   4.834847   4.382948   4.727755
    14  H    4.166491   2.752953   4.834693   4.727624   4.384843
    15  C    6.366856   5.051376   7.202859   6.582116   6.583171
    16  H    5.165913   4.173965   6.140580   5.386942   5.086823
    17  H    5.164005   4.173428   6.139390   5.085128   5.383311
    18  C    7.572162   6.372903   8.487015   7.689454   7.689539
    19  H    6.545810   5.169427   7.305301   6.700091   6.931707
    20  H    6.546768   5.169037   7.305548   6.931599   6.703692
    21  C    8.876613   7.577564   9.728179   9.042941   9.044530
    22  H    7.653038   6.553231   8.607254   7.817088   7.613197
    23  H    7.650482   6.552241   8.605547   7.610549   7.812756
    24  C   10.098718   8.882882  11.007988  10.196564  10.197063
    25  H    9.005346   7.656563   9.803941   9.128324   9.300814
    26  H    9.007118   7.656817   9.804898   9.300974   9.133551
    27  C   11.393522  10.103550  12.253675  11.532006  11.533922
    28  H   10.156304   9.010030  11.097769  10.290024  10.136332
    29  H   10.155269   9.010427  11.097515  10.134812  10.287684
    30  C   12.601572  11.375202  13.506520  12.689548  12.688545
    31  H   11.488475  10.156522  12.307642  11.594631  11.730433
    32  H   11.505028  10.173154  12.324616  11.744799  11.612713
    33  C   13.554065  12.329451  14.456342  13.574562  13.700465
    34  H   13.487867  12.309558  14.405393  13.421777  13.672614
    35  H   14.508120  13.248933  15.389239  14.559864  14.661221
    36  H   12.798312  11.622882  13.729421  12.914127  12.792592
                    6          7          8          9         10
     6  C    0.000000
     7  H    2.162596   0.000000
     8  H    2.162521   1.764935   0.000000
     9  C    1.529570   2.758590   2.759577   0.000000
    10  H    1.096850   3.067188   2.508049   2.160357   0.000000
    11  H    1.096850   2.508986   3.067147   2.160241   1.764858
    12  C    2.526103   4.179624   4.179717   1.529590   2.753671
    13  H    2.160106   2.531941   3.087943   1.096820   3.065894
    14  H    2.160225   3.085219   2.532343   1.096820   2.507378
    15  C    3.886174   5.174869   5.176481   2.526184   4.175316
    16  H    2.754752   4.711883   4.368044   2.160130   2.526678
    17  H    2.753093   4.369184   4.711486   2.160203   3.079698
    18  C    5.052132   6.559116   6.559576   3.886138   5.169685
    19  H    4.174516   5.057787   5.359405   2.754511   4.707818
    20  H    4.175222   5.355585   5.059042   2.753620   4.366045
    21  C    6.373983   7.662246   7.664398   5.052372   6.554687
    22  H    5.170871   6.910685   6.680894   4.174899   5.053066
    23  H    5.168570   6.681580   6.910178   4.174500   5.349089
    24  C    7.578689   9.019133   9.020039   6.374456   7.657682
    25  H    6.553295   7.583462   7.789339   5.170272   6.905647
    26  H    6.554775   7.785345   7.585896   5.169986   6.678816
    27  C    8.883393  10.168485  10.170937   7.578358   9.014328
    28  H    7.655238   9.275008   9.105535   6.551548   7.576200
    29  H    7.654491   9.106989   9.276268   6.552394   7.777212
    30  C   10.081558  11.483196  11.482430   8.859059  10.141236
    31  H    9.007611  10.102794  10.257762   7.651148   9.267507
    32  H    9.023315  10.272224  10.122030   7.667235   9.113400
    33  C   11.041984  12.360756  12.498466   9.821662  11.173228
    34  H   11.001072  12.299301  12.571414   9.842286  11.178683
    35  H   11.995297  13.263075  13.373962  10.731014  12.133154
    36  H   10.288916  11.828979  11.697277   9.133363  10.232518
                   11         12         13         14         15
    11  H    0.000000
    12  C    2.754352   0.000000
    13  H    2.506446   2.160234   0.000000
    14  H    3.065897   2.160139   1.765078   0.000000
    15  C    4.174491   1.529580   2.753212   2.754885   0.000000
    16  H    3.083567   1.096810   3.065801   2.505919   2.160233
    17  H    2.525611   1.096810   2.507518   3.065785   2.160074
    18  C    5.170010   2.526029   4.174668   4.175006   1.529580
    19  H    4.362754   2.160107   2.525848   3.083949   1.096810
    20  H    4.707714   2.160261   3.079663   2.526699   1.096810
    21  C    6.553289   3.886145   5.169004   5.171276   2.526189
    22  H    5.353860   2.754707   4.707605   4.363349   2.160092
    23  H    5.051043   2.752925   4.364965   4.707550   2.160208
    24  C    7.657544   5.052586   6.554115   6.554963   3.886662
    25  H    6.673826   4.174322   5.051523   5.354402   2.754406
    26  H    6.905725   4.175306   5.349574   5.053554   2.753678
    27  C    9.012644   6.373959   7.656068   7.658573   5.052175
    28  H    7.779832   5.167763   6.903107   6.673556   4.172671
    29  H    7.575310   5.167456   6.675634   6.904711   4.173777
    30  C   10.143045   7.555459   8.988957   8.987569   6.349024
    31  H    9.096881   6.548902   7.570854   7.775461   5.163962
    32  H    9.281094   6.563171   7.789881   7.589689   5.179477
    33  C   11.019920   8.528498   9.852567  10.024405   7.324559
    34  H   10.872648   8.528255   9.821041  10.159537   7.412617
    35  H   12.011835   9.479786  10.740237  10.876340   8.216375
    36  H   10.383642   7.781061   9.386205   9.219466   6.669807
                   16         17         18         19         20
    16  H    0.000000
    17  H    1.765051   0.000000
    18  C    2.753366   2.754271   0.000000
    19  H    3.065784   2.506075   2.160229   0.000000
    20  H    2.507341   3.065781   2.160135   1.765070   0.000000
    21  C    4.175114   4.174306   1.529600   2.753160   2.754971
    22  H    2.526388   3.083748   1.096810   3.065771   2.505818
    23  H    3.079243   2.525432   1.096810   2.507588   3.065787
    24  C    5.169905   5.170378   2.526558   4.175137   4.175568
    25  H    4.707482   4.362231   2.160015   2.525676   3.084013
    26  H    4.366000   4.707638   2.160287   3.079644   2.526855
    27  C    6.554472   6.553449   3.886321   5.168768   5.170755
    28  H    5.049524   5.350379   2.751966   4.705761   4.361911
    29  H    5.347714   5.049700   2.752139   4.364327   4.707119
    30  C    7.634432   7.637653   5.029443   6.529413   6.526588
    31  H    6.901300   6.672079   4.171449   5.045013   5.344912
    32  H    6.685317   6.913819   4.182840   5.360662   5.062992
    33  C    8.697460   8.500437   6.025457   7.366079   7.593502
    34  H    8.756200   8.362514   6.098943   7.384124   7.828163
    35  H    9.653171   9.501302   6.971893   8.228745   8.404437
    36  H    7.705852   7.905921   5.290831   7.012394   6.787134
                   21         22         23         24         25
    21  C    0.000000
    22  H    2.160262   0.000000
    23  H    2.160093   1.765055   0.000000
    24  C    1.530060   2.753865   2.754724   0.000000
    25  H    1.096810   3.065731   2.505963   2.160632   0.000000
    26  H    1.096810   2.507335   3.065803   2.160452   1.765182
    27  C    2.525986   4.175291   4.174985   1.529970   2.753114
    28  H    2.159649   2.523137   3.080334   1.097450   3.065731
    29  H    2.160181   3.078506   2.524268   1.097440   2.507641
    30  C    3.860025   5.147228   5.152471   2.502934   4.150575
    31  H    2.748480   4.704950   4.363789   2.161753   2.519365
    32  H    2.762916   4.370779   4.714709   2.163667   3.091510
    33  C    4.857262   6.262482   5.986387   3.554190   4.919812
    34  H    5.077377   6.414447   5.865745   3.796750   5.035222
    35  H    5.711698   7.205764   7.001953   4.483681   5.729970
    36  H    4.280048   5.179486   5.472593   2.863847   4.796945
                   26         27         28         29         30
    26  H    0.000000
    27  C    2.753949   0.000000
    28  H    2.506530   2.164161   0.000000
    29  H    3.065976   2.162957   1.764112   0.000000
    30  C    4.144867   1.501750   2.735795   2.743764   0.000000
    31  H    3.072595   1.096900   3.069742   2.516387   2.149557
    32  H    2.536145   1.096570   2.510302   3.070134   2.121046
    33  C    5.253030   2.510508   3.946326   3.490136   1.338890
    34  H    5.665816   3.062551   4.288550   3.412079   2.121573
    35  H    5.977900   3.240872   4.842980   4.533057   2.111355
    36  H    4.460663   2.217862   2.656445   3.187936   1.088280
                   31         32         33         34         35
    31  H    0.000000
    32  H    1.761741   0.000000
    33  C    2.641807   3.202584   0.000000
    34  H    3.006677   3.957124   1.085550   0.000000
    35  H    3.282935   3.681439   1.085710   1.856157   0.000000
    36  H    3.106541   2.538400   2.095015   2.859013   2.675961
                   36
    36  H    0.000000
 Stoichiometry    C12H24
 Framework group  C1[X(C12H24)]
 Deg. of freedom   102
 Full point group                 C1      NOp   1
 Largest Abelian subgroup         C1      NOp   1
 Largest concise Abelian subgroup C1      NOp   1
                         Standard orientation:                         
 ---------------------------------------------------------------------
 Center     Atomic      Atomic             Coordinates (Angstroms)
 Number     Number       Type             X           Y           Z
 ---------------------------------------------------------------------
      1          6           0       -6.772989   -0.426368    0.056433
      2          6           0       -5.523214    0.434624    0.147433
      3          1           0       -7.668469    0.191596    0.175361
      4          1           0       -6.780929   -1.190417    0.840341
      5          1           0       -6.833423   -0.928880   -0.914213
      6          6           0       -4.254109   -0.401393   -0.015776
      7          1           0       -5.509613    0.947296    1.116288
      8          1           0       -5.562124    1.208007   -0.628495
      9          6           0       -2.999197    0.468078    0.078030
     10          1           0       -4.274254   -0.914388   -0.985060
     11          1           0       -4.222691   -1.176732    0.759429
     12          6           0       -1.729212   -0.368407   -0.086521
     13          1           0       -2.978812    0.980090    1.047794
     14          1           0       -3.030953    1.243849   -0.696686
     15          6           0       -0.474135    0.500534    0.010105
     16          1           0       -1.748853   -0.878873   -1.057104
     17          1           0       -1.698313   -1.145417    0.686973
     18          6           0        0.795648   -0.335902   -0.156148
     19          1           0       -0.454017    1.009936    0.981237
     20          1           0       -0.505348    1.278369   -0.762546
     21          6           0        2.050976    0.532367   -0.056465
     22          1           0        0.776289   -0.843621   -1.128176
     23          1           0        0.825916   -1.115097    0.615171
     24          6           0        3.321082   -0.304112   -0.224444
     25          1           0        2.070653    1.038943    0.916153
     26          1           0        2.020457    1.312318   -0.827009
     27          6           0        4.575878    0.565336   -0.122683
     28          1           0        3.298290   -0.812050   -1.197006
     29          1           0        3.349041   -1.086189    0.544937
     30          6           0        5.822297   -0.252961   -0.301806
     31          1           0        4.588603    1.083172    0.844205
     32          1           0        4.555444    1.340158   -0.898376
     33          6           0        6.768697   -0.394134    0.634688
     34          1           0        6.623551   -1.030091    1.502393
     35          1           0        7.716088    0.129326    0.549798
     36          1           0        5.953137   -0.747271   -1.262479
 ---------------------------------------------------------------------
 Rotational constants (GHZ):      6.3782340      0.1581656      0.1569964
 Standard basis: def2SVP (5D, 7F)
 There are   300 symmetry adapted cartesian basis functions of A   symmetry.
 There are   288 symmetry adapted basis functions of A   symmetry.
   288 basis functions,   468 primitive gaussians,   300 cartesian basis functions
    48 alpha electrons       48 beta electrons
       nuclear repulsion energy       654.6844906991 Hartrees.
 NAtoms=   36 NActive=   36 NUniq=   36 SFac= 1.00D+00 NAtFMM=   60 NAOKFM=F Big=F
 Integral buffers will be    131072 words long.
 Raffenetti 2 integral format.
 Two-electron integral symmetry is turned on.
 One-electron integrals computed using PRISM.
   1 Symmetry operations used in ECPInt.
 ECPInt:  NShTT=   10440 NPrTT=   35208 LenC2=    8764 LenP2D=   21892.
 LDataN:  DoStor=T MaxTD1= 4 Len=   56
 NBasis=   288 RedAO= T EigKep=  7.64D-04  NBF=   288
 NBsUse=   288 1.00D-06 EigRej= -1.00D+00 NBFU=   288
 ExpMin= 1.22D-01 ExpMax= 1.24D+03 ExpMxC= 1.86D+02 IAcc=3 IRadAn=         7 AccDes= 0.00D+00
 Harris functional with IExCor= 1009 and IRadAn=       7 diagonalized for initial guess.
 HarFok:  IExCor= 1009 AccDes= 0.00D+00 IRadAn=         7 IDoV= 1 UseB2=F ITyADJ=14
 ICtDFT=  3500011 ScaDFX=  1.000000  1.000000  1.000000  1.000000
 FoFCou: FMM=F IPFlag=           0 FMFlag=      100000 FMFlg1=           0
         NFxFlg=           0 DoJE=T BraDBF=F KetDBF=T FulRan=T
         wScrn=  0.000000 ICntrl=     500 IOpCl=  0 I1Cent=   200000004 NGrid=           0
         NMat0=    1 NMatS0=      1 NMatT0=    0 NMatD0=    1 NMtDS0=    0 NMtDT0=    0
 Petite list used in FoFCou.
 Keep R1 ints in memory in canonical form, NReq=879895090.
 Requested convergence on RMS density matrix=1.00D-08 within 128 cycles.
 Requested convergence on MAX density matrix=1.00D-06.
 Requested convergence on             energy=1.00D-06.
 No special actions if energy rises.
 Integral accuracy reduced to 1.0D-05 until final iterations.
 Initial convergence to 1.0D-05 achieved.  Increase integral accuracy.
 SCF Done:  E(RM06) =  -470.866443157     A.U. after   14 cycles
            NFock= 14  Conv=0.51D-08     -V/T= 2.0122

 **********************************************************************

            Population analysis using the SCF density.

 **********************************************************************

 Orbital symmetries:
       Occupied  (A) (A) (A) (A) (A) (A) (A) (A) (A) (A) (A) (A)
                 (A) (A) (A) (A) (A) (A) (A) (A) (A) (A) (A) (A)
                 (A) (A) (A) (A) (A) (A) (A) (A) (A) (A) (A) (A)
                 (A) (A) (A) (A) (A) (A) (A) (A) (A) (A) (A) (A)
       Virtual   (A) (A) (A) (A) (A) (A) (A) (A) (A) (A) (A) (A)
                 (A) (A) (A) (A) (A) (A) (A) (A) (A) (A) (A) (A)
                 (A) (A) (A) (A) (A) (A) (A) (A) (A) (A) (A) (A)
                 (A) (A) (A) (A) (A) (A) (A) (A) (A) (A) (A) (A)
                 (A) (A) (A) (A) (A) (A) (A) (A) (A) (A) (A) (A)
                 (A) (A) (A) (A) (A) (A) (A) (A) (A) (A) (A) (A)
                 (A) (A) (A) (A) (A) (A) (A) (A) (A) (A) (A) (A)
                 (A) (A) (A) (A) (A) (A) (A) (A) (A) (A) (A) (A)
                 (A) (A) (A) (A) (A) (A) (A) (A) (A) (A) (A) (A)
                 (A) (A) (A) (A) (A) (A) (A) (A) (A) (A) (A) (A)
                 (A) (A) (A) (A) (A) (A) (A) (A) (A) (A) (A) (A)
                 (A) (A) (A) (A) (A) (A) (A) (A) (A) (A) (A) (A)
                 (A) (A) (A) (A) (A) (A) (A) (A) (A) (A) (A) (A)
                 (A) (A) (A) (A) (A) (A) (A) (A) (A) (A) (A) (A)
                 (A) (A) (A) (A) (A) (A) (A) (A) (A) (A) (A) (A)
                 (A) (A) (A) (A) (A) (A) (A) (A) (A) (A) (A) (A)
                 (A) (A) (A) (A) (A) (A) (A) (A) (A) (A) (A) (A)
                 (A) (A) (A) (A) (A) (A) (A) (A) (A) (A) (A) (A)
                 (A) (A) (A) (A) (A) (A) (A) (A) (A) (A) (A) (A)
                 (A) (A) (A) (A) (A) (A) (A) (A) (A) (A) (A) (A)
 The electronic state is 1-A.
 Alpha  occ. eigenvalues --  -10.25356 -10.24807 -10.24107 -10.23872 -10.23779
 Alpha  occ. eigenvalues --  -10.23749 -10.23716 -10.23676 -10.23649 -10.23642
 Alpha  occ. eigenvalues --  -10.23208 -10.23034  -0.82264  -0.81120  -0.79121
 Alpha  occ. eigenvalues --   -0.76405  -0.73124  -0.69300  -0.64982  -0.60688
 Alpha  occ. eigenvalues --   -0.58458  -0.57724  -0.57509  -0.55206  -0.49755
 Alpha  occ. eigenvalues --   -0.48548  -0.46708  -0.44919  -0.44552  -0.43844
 Alpha  occ. eigenvalues --   -0.43615  -0.42011  -0.41839  -0.40339  -0.39581
 Alpha  occ. eigenvalues --   -0.38939  -0.37344  -0.36390  -0.35332  -0.35013
 Alpha  occ. eigenvalues --   -0.34399  -0.34088  -0.33603  -0.33439  -0.33068
 Alpha  occ. eigenvalues --   -0.32933  -0.30475  -0.18540
 Alpha virt. eigenvalues --   -0.05940   0.06282   0.06997   0.07965   0.08147
 Alpha virt. eigenvalues --    0.08738   0.09330   0.09756   0.10174   0.11317
 Alpha virt. eigenvalues --    0.11507   0.12662   0.13232   0.14135   0.14768
 Alpha virt. eigenvalues --    0.15372   0.15762   0.16158   0.16239   0.16878
 Alpha virt. eigenvalues --    0.17254   0.18027   0.18517   0.19492   0.19748
 Alpha virt. eigenvalues --    0.20390   0.20714   0.22645   0.23050   0.23561
 Alpha virt. eigenvalues --    0.25728   0.26515   0.28181   0.32015   0.33132
 Alpha virt. eigenvalues --    0.34790   0.38508   0.40697   0.41489   0.42313
 Alpha virt. eigenvalues --    0.42584   0.43261   0.43800   0.43971   0.45002
 Alpha virt. eigenvalues --    0.46814   0.48385   0.49658   0.50369   0.50755
 Alpha virt. eigenvalues --    0.52355   0.52729   0.53939   0.54253   0.57812
 Alpha virt. eigenvalues --    0.58854   0.59969   0.61157   0.61836   0.62030
 Alpha virt. eigenvalues --    0.62149   0.62557   0.62656   0.63012   0.63074
 Alpha virt. eigenvalues --    0.63511   0.64206   0.64627   0.65172   0.65722
 Alpha virt. eigenvalues --    0.65922   0.66063   0.66247   0.66703   0.67038
 Alpha virt. eigenvalues --    0.67236   0.67393   0.68217   0.68799   0.68902
 Alpha virt. eigenvalues --    0.69237   0.69882   0.70343   0.70929   0.71152
 Alpha virt. eigenvalues --    0.71613   0.71726   0.72076   0.72824   0.73076
 Alpha virt. eigenvalues --    0.74685   0.78436   0.82166   0.87064   0.87578
 Alpha virt. eigenvalues --    0.91034   0.94602   0.98309   0.98784   1.00567
 Alpha virt. eigenvalues --    1.01254   1.01913   1.02421   1.02994   1.04030
 Alpha virt. eigenvalues --    1.05548   1.07076   1.09381   1.17214   1.19144
 Alpha virt. eigenvalues --    1.22793   1.23862   1.26904   1.31515   1.31704
 Alpha virt. eigenvalues --    1.32866   1.33537   1.34672   1.35863   1.36096
 Alpha virt. eigenvalues --    1.37354   1.37808   1.38030   1.41777   1.46134
 Alpha virt. eigenvalues --    1.51607   1.52644   1.57056   1.58149   1.60816
 Alpha virt. eigenvalues --    1.65509   1.66047   1.66363   1.66536   1.69139
 Alpha virt. eigenvalues --    1.71453   1.72481   1.73611   1.73984   1.74064
 Alpha virt. eigenvalues --    1.74680   1.75103   1.75783   1.76573   1.77558
 Alpha virt. eigenvalues --    1.78128   1.78861   1.79236   1.79947   1.80256
 Alpha virt. eigenvalues --    1.80434   1.80879   1.81667   1.82209   1.82653
 Alpha virt. eigenvalues --    1.82791   1.84156   1.84512   1.85672   1.85736
 Alpha virt. eigenvalues --    1.87266   1.88751   1.89513   1.90637   1.91350
 Alpha virt. eigenvalues --    1.91573   1.92376   1.92832   1.93802   1.94458
 Alpha virt. eigenvalues --    1.96431   1.98624   1.99784   2.01048   2.04136
 Alpha virt. eigenvalues --    2.05884   2.06551   2.09681   2.10445   2.10993
 Alpha virt. eigenvalues --    2.14489   2.15426   2.20334   2.20785   2.23063
 Alpha virt. eigenvalues --    2.26842   2.28723   2.31338   2.35175   2.37083
 Alpha virt. eigenvalues --    2.37746   2.40083   2.41023   2.41562   2.41700
 Alpha virt. eigenvalues --    2.42358   2.43230   2.44656   2.45845   2.46828
 Alpha virt. eigenvalues --    2.49545   2.50917   2.51443   2.52073   2.55817
 Alpha virt. eigenvalues --    2.56710   2.57361   2.57507   2.59346   2.59799
 Alpha virt. eigenvalues --    2.60536   2.61663   2.63940   2.65317   2.69746
 Alpha virt. eigenvalues --    2.74600   2.75024   2.78778   2.82250   2.83235
 Alpha virt. eigenvalues --    2.83695   2.84869   2.85843   2.87820   2.89454
 Alpha virt. eigenvalues --    2.91464   2.92312   2.92488   2.94438   2.95447
 Alpha virt. eigenvalues --    2.97155   2.98243   2.99119   2.99727   3.01472
 Alpha virt. eigenvalues --    3.02577   3.04403   3.04751   3.06527   3.07949
          Condensed to atoms (all electrons):
               1          2          3          4          5          6
     1  C    4.571384   0.421775   0.377965   0.394073   0.394028  -0.058834
     2  C    0.421775   4.674054  -0.014015  -0.023347  -0.023343   0.398565
     3  H    0.377965  -0.014015   0.656456  -0.024834  -0.024840   0.008284
     4  H    0.394073  -0.023347  -0.024834   0.653198  -0.027914  -0.008668
     5  H    0.394028  -0.023343  -0.024840  -0.027914   0.653309  -0.008668
     6  C   -0.058834   0.398565   0.008284  -0.008668  -0.008668   4.752158
     7  H   -0.023835   0.375252  -0.006693  -0.010178   0.008805  -0.022825
     8  H   -0.023805   0.375172  -0.006705   0.008804  -0.010167  -0.022767
     9  C    0.009389  -0.046174  -0.000555   0.000467   0.000469   0.364205
    10  H   -0.004395  -0.027303  -0.000047  -0.001941   0.007553   0.374666
    11  H   -0.004378  -0.027361  -0.000045   0.007555  -0.001947   0.374803
    12  C   -0.000510   0.008365   0.000016  -0.000008  -0.000008  -0.043081
    13  H    0.000294  -0.006639   0.000008  -0.000053   0.000024  -0.022343
    14  H    0.000298  -0.006628   0.000008   0.000024  -0.000053  -0.022324
    15  C    0.000009  -0.000440   0.000000   0.000000   0.000000   0.008157
    16  H    0.000007   0.000318   0.000000   0.000004  -0.000010  -0.007043
    17  H    0.000007   0.000325   0.000000  -0.000010   0.000004  -0.007024
    18  C    0.000000   0.000008   0.000000   0.000000   0.000000  -0.000458
    19  H    0.000000   0.000003   0.000000   0.000000   0.000000   0.000376
    20  H    0.000000   0.000003   0.000000   0.000000   0.000000   0.000386
    21  C    0.000000   0.000000   0.000000   0.000000   0.000000   0.000008
    22  H    0.000000   0.000000   0.000000   0.000000   0.000000   0.000003
    23  H    0.000000   0.000000   0.000000   0.000000   0.000000   0.000004
    24  C    0.000000   0.000000   0.000000   0.000000   0.000000   0.000000
    25  H    0.000000   0.000000   0.000000   0.000000   0.000000   0.000000
    26  H    0.000000   0.000000   0.000000   0.000000   0.000000   0.000000
    27  C    0.000000   0.000000   0.000000   0.000000   0.000000   0.000000
    28  H    0.000000   0.000000   0.000000   0.000000   0.000000   0.000000
    29  H    0.000000   0.000000   0.000000   0.000000   0.000000   0.000000
    30  C    0.000000   0.000000   0.000000   0.000000   0.000000   0.000000
    31  H    0.000000   0.000000   0.000000   0.000000   0.000000   0.000000
    32  H    0.000000   0.000000   0.000000   0.000000   0.000000   0.000000
    33  C    0.000000   0.000000   0.000000   0.000000   0.000000   0.000000
    34  H    0.000000   0.000000   0.000000   0.000000   0.000000   0.000000
    35  H    0.000000   0.000000   0.000000   0.000000   0.000000   0.000000
    36  H    0.000000   0.000000   0.000000   0.000000   0.000000   0.000000
               7          8          9         10         11         12
     1  C   -0.023835  -0.023805   0.009389  -0.004395  -0.004378  -0.000510
     2  C    0.375252   0.375172  -0.046174  -0.027303  -0.027361   0.008365
     3  H   -0.006693  -0.006705  -0.000555  -0.000047  -0.000045   0.000016
     4  H   -0.010178   0.008804   0.000467  -0.001941   0.007555  -0.000008
     5  H    0.008805  -0.010167   0.000469   0.007553  -0.001947  -0.000008
     6  C   -0.022825  -0.022767   0.364205   0.374666   0.374803  -0.043081
     7  H    0.691009  -0.034882  -0.007350   0.009506  -0.011838   0.000362
     8  H   -0.034882   0.691120  -0.007368  -0.011879   0.009504   0.000357
     9  C   -0.007350  -0.007368   4.750096  -0.020960  -0.020975   0.363903
    10  H    0.009506  -0.011879  -0.020960   0.696384  -0.037167  -0.007314
    11  H   -0.011838   0.009504  -0.020975  -0.037167   0.696184  -0.007332
    12  C    0.000362   0.000357   0.363903  -0.007314  -0.007332   4.748377
    13  H    0.007903  -0.002030   0.372283   0.009444  -0.011954  -0.021272
    14  H   -0.002039   0.007902   0.372147  -0.011931   0.009445  -0.021198
    15  C    0.000004   0.000004  -0.044099   0.000436   0.000430   0.365796
    16  H    0.000015  -0.000040  -0.021650   0.007737  -0.002009   0.371741
    17  H   -0.000040   0.000015  -0.021704  -0.002021   0.007744   0.371911
    18  C    0.000000   0.000000   0.008357   0.000001   0.000001  -0.044890
    19  H   -0.000013   0.000005  -0.007122   0.000014  -0.000040  -0.021256
    20  H    0.000005  -0.000012  -0.007118  -0.000040   0.000014  -0.021236
    21  C    0.000000   0.000000  -0.000461   0.000000   0.000000   0.008351
    22  H    0.000000   0.000000   0.000392  -0.000012   0.000005  -0.007215
    23  H    0.000000   0.000000   0.000388   0.000005  -0.000012  -0.007056
    24  C    0.000000   0.000000   0.000008   0.000000   0.000000  -0.000442
    25  H    0.000000   0.000000   0.000004   0.000000   0.000000   0.000367
    26  H    0.000000   0.000000   0.000002   0.000000   0.000000   0.000402
    27  C    0.000000   0.000000   0.000000   0.000000   0.000000   0.000007
    28  H    0.000000   0.000000   0.000000   0.000000   0.000000   0.000002
    29  H    0.000000   0.000000   0.000000   0.000000   0.000000   0.000002
    30  C    0.000000   0.000000   0.000000   0.000000   0.000000   0.000000
    31  H    0.000000   0.000000   0.000000   0.000000   0.000000   0.000001
    32  H    0.000000   0.000000   0.000000   0.000000   0.000000   0.000000
    33  C    0.000000   0.000000   0.000000   0.000000   0.000000   0.000000
    34  H    0.000000   0.000000   0.000000   0.000000   0.000000   0.000000
    35  H    0.000000   0.000000   0.000000   0.000000   0.000000   0.000000
    36  H    0.000000   0.000000   0.000000   0.000000   0.000000   0.000000
              13         14         15         16         17         18
     1  C    0.000294   0.000298   0.000009   0.000007   0.000007   0.000000
     2  C   -0.006639  -0.006628  -0.000440   0.000318   0.000325   0.000008
     3  H    0.000008   0.000008   0.000000   0.000000   0.000000   0.000000
     4  H   -0.000053   0.000024   0.000000   0.000004  -0.000010   0.000000
     5  H    0.000024  -0.000053   0.000000  -0.000010   0.000004   0.000000
     6  C   -0.022343  -0.022324   0.008157  -0.007043  -0.007024  -0.000458
     7  H    0.007903  -0.002039   0.000004   0.000015  -0.000040   0.000000
     8  H   -0.002030   0.007902   0.000004  -0.000040   0.000015   0.000000
     9  C    0.372283   0.372147  -0.044099  -0.021650  -0.021704   0.008357
    10  H    0.009444  -0.011931   0.000436   0.007737  -0.002021   0.000001
    11  H   -0.011954   0.009445   0.000430  -0.002009   0.007744   0.000001
    12  C   -0.021272  -0.021198   0.365796   0.371741   0.371911  -0.044890
    13  H    0.696001  -0.036333  -0.007210   0.009383  -0.011861   0.000401
    14  H   -0.036333   0.696260  -0.007241  -0.011931   0.009380   0.000392
    15  C   -0.007210  -0.007241   4.748098  -0.021160  -0.021153   0.363327
    16  H    0.009383  -0.011931  -0.021160   0.696309  -0.036218  -0.007219
    17  H   -0.011861   0.009380  -0.021153  -0.036218   0.695909  -0.007243
    18  C    0.000401   0.000392   0.363327  -0.007219  -0.007243   4.750939
    19  H    0.007785  -0.001994   0.371696   0.009373  -0.011922  -0.021286
    20  H   -0.002008   0.007785   0.371557  -0.011897   0.009379  -0.021324
    21  C    0.000003   0.000003  -0.043262   0.000395   0.000394   0.359004
    22  H    0.000014  -0.000040  -0.020800   0.007794  -0.001993   0.371895
    23  H   -0.000040   0.000014  -0.021147  -0.002004   0.007790   0.372393
    24  C    0.000000   0.000000   0.007835   0.000004   0.000003  -0.040267
    25  H   -0.000012   0.000005  -0.006791   0.000014  -0.000039  -0.021421
    26  H    0.000005  -0.000012  -0.007227  -0.000040   0.000014  -0.020857
    27  C    0.000000   0.000000  -0.000427   0.000000   0.000000   0.007967
    28  H    0.000000   0.000000   0.000413  -0.000012   0.000005  -0.006895
    29  H    0.000000   0.000000   0.000342   0.000005  -0.000012  -0.006638
    30  C    0.000000   0.000000   0.000011   0.000000   0.000000  -0.000588
    31  H    0.000000   0.000000  -0.000016   0.000000   0.000000   0.000562
    32  H    0.000000   0.000000  -0.000012   0.000000   0.000000   0.000444
    33  C    0.000000   0.000000   0.000000   0.000000   0.000000   0.000022
    34  H    0.000000   0.000000   0.000000   0.000000   0.000000   0.000004
    35  H    0.000000   0.000000   0.000000   0.000000   0.000000  -0.000001
    36  H    0.000000   0.000000  -0.000001   0.000000   0.000000   0.000039
              19         20         21         22         23         24
     1  C    0.000000   0.000000   0.000000   0.000000   0.000000   0.000000
     2  C    0.000003   0.000003   0.000000   0.000000   0.000000   0.000000
     3  H    0.000000   0.000000   0.000000   0.000000   0.000000   0.000000
     4  H    0.000000   0.000000   0.000000   0.000000   0.000000   0.000000
     5  H    0.000000   0.000000   0.000000   0.000000   0.000000   0.000000
     6  C    0.000376   0.000386   0.000008   0.000003   0.000004   0.000000
     7  H   -0.000013   0.000005   0.000000   0.000000   0.000000   0.000000
     8  H    0.000005  -0.000012   0.000000   0.000000   0.000000   0.000000
     9  C   -0.007122  -0.007118  -0.000461   0.000392   0.000388   0.000008
    10  H    0.000014  -0.000040   0.000000  -0.000012   0.000005   0.000000
    11  H   -0.000040   0.000014   0.000000   0.000005  -0.000012   0.000000
    12  C   -0.021256  -0.021236   0.008351  -0.007215  -0.007056  -0.000442
    13  H    0.007785  -0.002008   0.000003   0.000014  -0.000040   0.000000
    14  H   -0.001994   0.007785   0.000003  -0.000040   0.000014   0.000000
    15  C    0.371696   0.371557  -0.043262  -0.020800  -0.021147   0.007835
    16  H    0.009373  -0.011897   0.000395   0.007794  -0.002004   0.000004
    17  H   -0.011922   0.009379   0.000394  -0.001993   0.007790   0.000003
    18  C   -0.021286  -0.021324   0.359004   0.371895   0.372393  -0.040267
    19  H    0.695807  -0.036180  -0.007256   0.009364  -0.011846   0.000419
    20  H   -0.036180   0.696542  -0.007280  -0.011929   0.009354   0.000378
    21  C   -0.007256  -0.007280   4.776559  -0.021738  -0.021765   0.343296
    22  H    0.009364  -0.011929  -0.021738   0.695702  -0.036137  -0.007084
    23  H   -0.011846   0.009354  -0.021765  -0.036137   0.694860  -0.007212
    24  C    0.000419   0.000378   0.343296  -0.007084  -0.007212   4.800835
    25  H    0.007742  -0.002001   0.374134   0.009325  -0.011946  -0.023844
    26  H   -0.001984   0.007746   0.371705  -0.011825   0.009367  -0.023123
    27  C    0.000002   0.000005  -0.039529   0.000302   0.000345   0.345906
    28  H    0.000012  -0.000039  -0.020083   0.007656  -0.001938   0.375091
    29  H   -0.000036   0.000014  -0.025071  -0.001989   0.007629   0.383760
    30  C    0.000000   0.000000   0.011311   0.000020   0.000001  -0.067655
    31  H   -0.000011   0.000006  -0.008215   0.000013  -0.000018  -0.014533
    32  H    0.000005  -0.000010  -0.010425  -0.000041   0.000015  -0.012361
    33  C    0.000000   0.000000  -0.001038   0.000000  -0.000003   0.010233
    34  H    0.000000   0.000000  -0.000174   0.000000   0.000001   0.001355
    35  H    0.000000   0.000000   0.000043   0.000000   0.000000  -0.000548
    36  H    0.000000   0.000000  -0.000630  -0.000009   0.000005   0.003793
              25         26         27         28         29         30
     1  C    0.000000   0.000000   0.000000   0.000000   0.000000   0.000000
     2  C    0.000000   0.000000   0.000000   0.000000   0.000000   0.000000
     3  H    0.000000   0.000000   0.000000   0.000000   0.000000   0.000000
     4  H    0.000000   0.000000   0.000000   0.000000   0.000000   0.000000
     5  H    0.000000   0.000000   0.000000   0.000000   0.000000   0.000000
     6  C    0.000000   0.000000   0.000000   0.000000   0.000000   0.000000
     7  H    0.000000   0.000000   0.000000   0.000000   0.000000   0.000000
     8  H    0.000000   0.000000   0.000000   0.000000   0.000000   0.000000
     9  C    0.000004   0.000002   0.000000   0.000000   0.000000   0.000000
    10  H    0.000000   0.000000   0.000000   0.000000   0.000000   0.000000
    11  H    0.000000   0.000000   0.000000   0.000000   0.000000   0.000000
    12  C    0.000367   0.000402   0.000007   0.000002   0.000002   0.000000
    13  H   -0.000012   0.000005   0.000000   0.000000   0.000000   0.000000
    14  H    0.000005  -0.000012   0.000000   0.000000   0.000000   0.000000
    15  C   -0.006791  -0.007227  -0.000427   0.000413   0.000342   0.000011
    16  H    0.000014  -0.000040   0.000000  -0.000012   0.000005   0.000000
    17  H   -0.000039   0.000014   0.000000   0.000005  -0.000012   0.000000
    18  C   -0.021421  -0.020857   0.007967  -0.006895  -0.006638  -0.000588
    19  H    0.007742  -0.001984   0.000002   0.000012  -0.000036   0.000000
    20  H   -0.002001   0.007746   0.000005  -0.000039   0.000014   0.000000
    21  C    0.374134   0.371705  -0.039529  -0.020083  -0.025071   0.011311
    22  H    0.009325  -0.011825   0.000302   0.007656  -0.001989   0.000020
    23  H   -0.011946   0.009367   0.000345  -0.001938   0.007629   0.000001
    24  C   -0.023844  -0.023123   0.345906   0.375091   0.383760  -0.067655
    25  H    0.694094  -0.036488  -0.006566   0.009276  -0.011829   0.000367
    26  H   -0.036488   0.697958  -0.006286  -0.011962   0.009354   0.000416
    27  C   -0.006566  -0.006286   4.716367  -0.027718  -0.028804   0.397478
    28  H    0.009276  -0.011962  -0.027718   0.692979  -0.037192  -0.006897
    29  H   -0.011829   0.009354  -0.028804  -0.037192   0.686538  -0.002397
    30  C    0.000367   0.000416   0.397478  -0.006897  -0.002397   4.948260
    31  H    0.007157  -0.002055   0.368551   0.009250  -0.011476  -0.027995
    32  H   -0.001750   0.008176   0.373901  -0.011860   0.008959  -0.009611
    33  C    0.000012  -0.000024  -0.083369   0.000103  -0.000366   0.559657
    34  H   -0.000013   0.000002  -0.011184   0.000072   0.000634  -0.052311
    35  H    0.000001   0.000000   0.010270  -0.000021  -0.000050  -0.027303
    36  H    0.000002  -0.000047  -0.053375   0.006588  -0.001775   0.378962
              31         32         33         34         35         36
     1  C    0.000000   0.000000   0.000000   0.000000   0.000000   0.000000
     2  C    0.000000   0.000000   0.000000   0.000000   0.000000   0.000000
     3  H    0.000000   0.000000   0.000000   0.000000   0.000000   0.000000
     4  H    0.000000   0.000000   0.000000   0.000000   0.000000   0.000000
     5  H    0.000000   0.000000   0.000000   0.000000   0.000000   0.000000
     6  C    0.000000   0.000000   0.000000   0.000000   0.000000   0.000000
     7  H    0.000000   0.000000   0.000000   0.000000   0.000000   0.000000
     8  H    0.000000   0.000000   0.000000   0.000000   0.000000   0.000000
     9  C    0.000000   0.000000   0.000000   0.000000   0.000000   0.000000
    10  H    0.000000   0.000000   0.000000   0.000000   0.000000   0.000000
    11  H    0.000000   0.000000   0.000000   0.000000   0.000000   0.000000
    12  C    0.000001   0.000000   0.000000   0.000000   0.000000   0.000000
    13  H    0.000000   0.000000   0.000000   0.000000   0.000000   0.000000
    14  H    0.000000   0.000000   0.000000   0.000000   0.000000   0.000000
    15  C   -0.000016  -0.000012   0.000000   0.000000   0.000000  -0.000001
    16  H    0.000000   0.000000   0.000000   0.000000   0.000000   0.000000
    17  H    0.000000   0.000000   0.000000   0.000000   0.000000   0.000000
    18  C    0.000562   0.000444   0.000022   0.000004  -0.000001   0.000039
    19  H   -0.000011   0.000005   0.000000   0.000000   0.000000   0.000000
    20  H    0.000006  -0.000010   0.000000   0.000000   0.000000   0.000000
    21  C   -0.008215  -0.010425  -0.001038  -0.000174   0.000043  -0.000630
    22  H    0.000013  -0.000041   0.000000   0.000000   0.000000  -0.000009
    23  H   -0.000018   0.000015  -0.000003   0.000001   0.000000   0.000005
    24  C   -0.014533  -0.012361   0.010233   0.001355  -0.000548   0.003793
    25  H    0.007157  -0.001750   0.000012  -0.000013   0.000001   0.000002
    26  H   -0.002055   0.008176  -0.000024   0.000002   0.000000  -0.000047
    27  C    0.368551   0.373901  -0.083369  -0.011184   0.010270  -0.053375
    28  H    0.009250  -0.011860   0.000103   0.000072  -0.000021   0.006588
    29  H   -0.011476   0.008959  -0.000366   0.000634  -0.000050  -0.001775
    30  C   -0.027995  -0.009611   0.559657  -0.052311  -0.027303   0.378962
    31  H    0.677677  -0.037946   0.002228   0.003802  -0.001235   0.009552
    32  H   -0.037946   0.652618   0.000857  -0.000082  -0.000358  -0.011498
    33  C    0.002228   0.000857   4.955901   0.396488   0.378521  -0.053431
    34  H    0.003802  -0.000082   0.396488   0.638380  -0.051142   0.011366
    35  H   -0.001235  -0.000358   0.378521  -0.051142   0.635724  -0.010546
    36  H    0.009552  -0.011498  -0.053431   0.011366  -0.010546   0.673140
 Mulliken charges:
               1
     1  C   -0.053473
     2  C   -0.078593
     3  H    0.034996
     4  H    0.032828
     5  H    0.032757
     6  C   -0.057583
     7  H    0.026831
     8  H    0.026772
     9  C   -0.036575
    10  H    0.019263
    11  H    0.019371
    12  C   -0.037141
    13  H    0.018208
    14  H    0.018060
    15  C   -0.037130
    16  H    0.018134
    17  H    0.018360
    18  C   -0.036670
    19  H    0.018344
    20  H    0.017901
    21  C   -0.038279
    22  H    0.018327
    23  H    0.018954
    24  C   -0.075846
    25  H    0.020199
    26  H    0.016783
    27  C    0.036156
    28  H    0.023170
    29  H    0.030398
    30  C   -0.101724
    31  H    0.024704
    32  H    0.050979
    33  C   -0.165790
    34  H    0.062803
    35  H    0.066644
    36  H    0.047866
 Sum of Mulliken charges =   0.00000
 Mulliken charges with hydrogens summed into heavy atoms:
               1
     1  C    0.047108
     2  C   -0.024990
     6  C   -0.018950
     9  C   -0.000308
    12  C   -0.000648
    15  C   -0.000886
    18  C    0.000611
    21  C   -0.001297
    24  C   -0.022278
    27  C    0.111839
    30  C   -0.053858
    33  C   -0.036343
 Electronic spatial extent (au):  <R**2>=           6923.5976
 Charge=              0.0000 electrons
 Dipole moment (field-independent basis, Debye):
    X=             -0.6647    Y=              0.2168    Z=             -0.2639  Tot=              0.7473
 Quadrupole moment (field-independent basis, Debye-Ang):
   XX=            -88.7127   YY=            -80.6537   ZZ=            -78.7858
   XY=              0.9147   XZ=             -1.2196   YZ=             -0.6289
 Traceless Quadrupole moment (field-independent basis, Debye-Ang):
   XX=             -5.9953   YY=              2.0637   ZZ=              3.9316
   XY=              0.9147   XZ=             -1.2196   YZ=             -0.6289
 Octapole moment (field-independent basis, Debye-Ang**2):
  XXX=            -57.4551  YYY=              0.9111  ZZZ=             -1.2540  XYY=             -0.6708
  XXY=             14.1062  XXZ=             -4.3152  XZZ=             -3.1760  YZZ=             -1.2807
  YYZ=              0.0636  XYZ=             -1.6022
 Hexadecapole moment (field-independent basis, Debye-Ang**3):
 XXXX=          -9814.5731 YYYY=           -275.3178 ZZZZ=           -194.4753 XXXY=             57.0663
 XXXZ=            -11.0502 YYYX=              5.1546 YYYZ=             -4.3130 ZZZX=             -6.3574
 ZZZY=             -0.0857 XXYY=          -1599.0297 XXZZ=          -1559.2764 YYZZ=            -71.4275
 XXYZ=            -13.7037 YYXZ=              0.4354 ZZXY=             -6.4100
 N-N= 6.546844906991D+02 E-N=-2.395646921347D+03  KE= 4.651722373293D+02
   1 Symmetry operations used in ECPInt.
 ECPInt:  NShTT=   10440 NPrTT=   35208 LenC2=    8764 LenP2D=   21892.
 LDataN:  DoStor=T MaxTD1= 5 Len=  102
 Calling FoFJK, ICntrl=      2127 FMM=F ISym2X=0 I1Cent= 0 IOpClX= 0 NMat=1 NMatS=1 NMatT=0.
 ***** Axes restored to original set *****
 -------------------------------------------------------------------
 Center     Atomic                   Forces (Hartrees/Bohr)
 Number     Number              X              Y              Z
 -------------------------------------------------------------------
      1        6           0.005902990    0.000007993    0.008758014
      2        6          -0.015548662   -0.000015703   -0.013128590
      3        1           0.003363044   -0.000001226   -0.004685696
      4        1          -0.002698069    0.003583178   -0.002779807
      5        1          -0.002700192   -0.003591731   -0.002780444
      6        6           0.021484530    0.000037035    0.014426839
      7        1           0.003036984    0.003846332    0.004287617
      8        1           0.003049493   -0.003840878    0.004285138
      9        6          -0.021518966   -0.000057442   -0.014649093
     10        1          -0.003901985   -0.004384766   -0.002727505
     11        1          -0.003906592    0.004369133   -0.002735736
     12        6           0.021629764    0.000098238    0.014603498
     13        1           0.003872843    0.004299556    0.002626226
     14        1           0.003902534   -0.004279808    0.002628739
     15        6          -0.021555236   -0.000088312   -0.014770200
     16        1          -0.003902383   -0.004323571   -0.002619777
     17        1          -0.003914577    0.004284098   -0.002641633
     18        6           0.021850981    0.000099223    0.014681732
     19        1           0.003864517    0.004321226    0.002635528
     20        1           0.003915638   -0.004285898    0.002649031
     21        6          -0.021558567   -0.000516273   -0.016057142
     22        1          -0.003866984   -0.004342679   -0.002612489
     23        1          -0.003905880    0.004279711   -0.002602814
     24        6           0.027394284   -0.002891437    0.006763055
     25        1           0.003745925    0.004365407    0.002696115
     26        1           0.004011148   -0.004470299    0.002736324
     27        6          -0.032139653    0.021216751   -0.046284128
     28        1          -0.003825526   -0.004214405   -0.002268798
     29        1          -0.003053690    0.003658035   -0.001004532
     30        6           0.029058546   -0.020644457   -0.012804463
     31        1           0.000956516    0.003666796    0.003011771
     32        1          -0.001025677   -0.005688516    0.004941147
     33        6          -0.013785497    0.022309109    0.017689038
     34        1           0.036759976    0.028786636    0.005323206
     35        1          -0.045201475   -0.013537911    0.005019311
     36        1           0.010209897   -0.032053145    0.027390520
 -------------------------------------------------------------------
 Cartesian Forces:  Max     0.046284128 RMS     0.013147420
 -----------------------------------------------------------------------------------------------
                       Internal Coordinate Forces (Hartree/Bohr or radian)
  Cent   Atom   N1       Length/X         N2         Alpha/Y        N3         Beta/Z          J
 -----------------------------------------------------------------------------------------------
      1  C 
      2  C        1   0.001488(     1)
      3  H        1   0.004778(     2)      2   0.006683(    36)
      4  H        1   0.005150(     3)      2   0.002070(    37)      3  -0.001092(    70)     0
      5  H        1   0.005159(     4)      2   0.002064(    38)      3   0.001086(    71)     0
      6  C        2  -0.002991(     5)      1   0.010417(    39)      3  -0.000006(    72)     0
      7  H        2   0.006004(     6)      1   0.005085(    40)      3  -0.001129(    73)     0
      8  H        2   0.006005(     7)      1   0.005078(    41)      3   0.001148(    74)     0
      9  C        6  -0.002943(     8)      2   0.011583(    42)      1  -0.000032(    75)     0
     10  H        6   0.006353(     9)      2   0.001111(    43)      1  -0.002173(    76)     0
     11  H        6   0.006349(    10)      2   0.001109(    44)      1   0.002175(    77)     0
     12  C        9  -0.002896(    11)      6   0.011729(    45)      2  -0.000019(    78)     0
     13  H        9   0.006236(    12)      6   0.001219(    46)      2  -0.002099(    79)     0
     14  H        9   0.006240(    13)      6   0.001198(    47)      2   0.002125(    80)     0
     15  C       12  -0.002890(    14)      9   0.011727(    48)      6  -0.000037(    81)     0
     16  H       12   0.006265(    15)      9   0.001272(    49)      6  -0.002099(    82)     0
     17  H       12   0.006256(    16)      9   0.001263(    50)      6   0.002094(    83)     0
     18  C       15  -0.002810(    17)     12   0.011811(    51)      9  -0.000024(    84)     0
     19  H       15   0.006249(    18)     12   0.001247(    52)      9  -0.002090(    85)     0
     20  H       15   0.006262(    19)     12   0.001208(    53)      9   0.002114(    86)     0
     21  C       18  -0.002870(    20)     15   0.012008(    54)     12   0.000050(    87)     0
     22  H       18   0.006258(    21)     15   0.001224(    55)     12  -0.002078(    88)     0
     23  H       18   0.006238(    22)     15   0.001280(    56)     12   0.002001(    89)     0
     24  C       21  -0.002131(    23)     18   0.012572(    57)     15  -0.000281(    90)     0
     25  H       21   0.006243(    24)     18   0.001404(    58)     15  -0.001876(    91)     0
     26  H       21   0.006489(    25)     18   0.001210(    59)     15   0.002057(    92)     0
     27  C       24   0.004257(    26)     21   0.015494(    60)     18   0.002008(    93)     0
     28  H       24   0.006019(    27)     21   0.001624(    61)     18  -0.001634(    94)     0
     29  H       24   0.004778(    28)     21   0.001906(    62)     18  -0.000384(    95)     0
     30  C       27  -0.000035(    29)     24   0.036317(    63)     21   0.007309(    96)     0
     31  H       27   0.004410(    30)     24   0.003421(    64)     21   0.002187(    97)     0
     32  H       27   0.005768(    31)     24   0.006488(    65)     21  -0.007488(    98)     0
     33  C       30   0.051819(    32)     27   0.002488(    66)     24  -0.083432(    99)     0
     34  H       33   0.012409(    33)     30   0.007355(    67)     27  -0.078809(   100)     0
     35  H       33   0.011853(    34)     30   0.010949(    68)     27  -0.080469(   101)     0
     36  H       30   0.014226(    35)     27  -0.012634(    69)     24   0.074307(   102)     0
 -----------------------------------------------------------------------------------------------
 Internal  Forces:  Max     0.083432148 RMS     0.017817066

 GradGradGradGradGradGradGradGradGradGradGradGradGradGradGradGradGradGrad
 Berny optimization.
 Search for a local minimum.
 Step number   1 out of a maximum of  200
 All quantities printed in internal units (Hartrees-Bohrs-Radians)
 Second derivative matrix not updated -- first step.
 ITU=  0
     Eigenvalues ---    0.01014   0.01016   0.01028   0.01028   0.01028
     Eigenvalues ---    0.01030   0.01038   0.01071   0.01312   0.01975
     Eigenvalues ---    0.08427   0.13370   0.15083   0.15093   0.15113
     Eigenvalues ---    0.15114   0.15115   0.15120   0.15129   0.15296
     Eigenvalues ---    0.15820   0.16000   0.17237   0.17292   0.17292
     Eigenvalues ---    0.17293   0.17293   0.17293   0.17306   0.17325
     Eigenvalues ---    0.17543   0.19881   0.20945   0.23861   0.29418
     Eigenvalues ---    0.29426   0.29460   0.29461   0.29462   0.29462
     Eigenvalues ---    0.29463   0.29566   0.30331   0.32194   0.33834
     Eigenvalues ---    0.33966   0.33967   0.34027   0.34033   0.34033
     Eigenvalues ---    0.34036   0.34036   0.34037   0.34037   0.34037
     Eigenvalues ---    0.34037   0.34037   0.34037   0.34037   0.34037
     Eigenvalues ---    0.34064   0.34104   0.34104   0.34276   0.34277
     Eigenvalues ---    0.34299   0.35012   0.35313   0.35332   0.36582
     Eigenvalues ---    0.36628   0.36659   0.36681   0.36682   0.36682
     Eigenvalues ---    0.36687   0.36695   0.37162   0.39241   0.39324
     Eigenvalues ---    0.39326   0.39326   0.39328   0.39331   0.39339
     Eigenvalues ---    0.39352   0.39414   0.39726   0.42862   0.42864
     Eigenvalues ---    0.42864   0.42864   0.42875   0.42884   0.42898
     Eigenvalues ---    0.42928   0.43148   0.48000   0.53123   0.57454
     Eigenvalues --- 1000.000001000.00000
 RFO step:  Lambda=-6.22276551D-02 EMin= 1.01411694D-02
 Linear search not attempted -- first point.
 Maximum step size (   0.300) exceeded in Quadratic search.
    -- Step size scaled by   0.644
 Variable       Old X    -DE/DX   Delta X   Delta X   Delta X     New X
                                 (Linear)    (Quad)   (Total)
    B1        2.87308   0.00149   0.00000   0.00262   0.00262   2.87570
    B2        2.06829   0.00478   0.00000   0.00759   0.00759   2.07588
    A2        1.92443   0.00668   0.00000   0.01540   0.01540   1.93983
    B3        2.06866   0.00515   0.00000   0.00819   0.00819   2.07685
    A3        1.93731   0.00207   0.00000   0.00097   0.00097   1.93828
    D3        4.19337  -0.00109   0.00000  -0.00417  -0.00417   4.18919
    B4        2.06865   0.00516   0.00000   0.00820   0.00820   2.07684
    A4        1.93737   0.00206   0.00000   0.00103   0.00103   1.93840
    D4        2.08990   0.00109   0.00000   0.00447   0.00447   2.09437
    B5        2.88837  -0.00299   0.00000  -0.00538  -0.00538   2.88299
    A5        1.94593   0.01042   0.00000   0.01572   0.01572   1.96165
    D5        3.14200  -0.00001   0.00000  -0.00239  -0.00239   3.13961
    B6        2.07156   0.00600   0.00000   0.00958   0.00958   2.08114
    A6        1.90492   0.00508   0.00000   0.00649   0.00649   1.91141
    D6        1.02042  -0.00113   0.00000  -0.00473  -0.00473   1.01570
    B7        2.07156   0.00601   0.00000   0.00958   0.00958   2.08114
    A7        1.90497   0.00508   0.00000   0.00656   0.00656   1.91153
    D7        5.26348   0.00115   0.00000   0.00175   0.00175   5.26523
    B8        2.89047  -0.00294   0.00000  -0.00531  -0.00531   2.88516
    A8        1.94309   0.01158   0.00000   0.02182   0.02182   1.96491
    D8        3.14277  -0.00003   0.00000  -0.00590  -0.00590   3.13687
    B9        2.07275   0.00635   0.00000   0.01016   0.01016   2.08290
    A9        1.91232   0.00111   0.00000  -0.00286  -0.00286   1.90947
    D9        1.02439  -0.00217   0.00000  -0.01069  -0.01069   1.01369
   B10        2.07275   0.00635   0.00000   0.01015   0.01015   2.08290
   A10        1.91235   0.00111   0.00000  -0.00183  -0.00183   1.91053
   D10        5.26097   0.00217   0.00000   0.00405   0.00405   5.26502
   B11        2.89051  -0.00290   0.00000  -0.00522  -0.00522   2.88528
   A11        1.94306   0.01173   0.00000   0.02110   0.02110   1.96416
   D11        3.14246  -0.00002   0.00000  -0.00230  -0.00230   3.14015
   B12        2.07269   0.00624   0.00000   0.00997   0.00997   2.08266
   A12        1.91222   0.00122   0.00000  -0.00205  -0.00205   1.91017
[...]
     5  H    0.008649  -0.009917   0.000440   0.007721  -0.001912  -0.000007
     6  C   -0.024665  -0.024735   0.366817   0.372533   0.372546  -0.039174
     7  H    0.692789  -0.036036  -0.007350   0.009824  -0.012029   0.000330
     8  H   -0.036036   0.692948  -0.007315  -0.011995   0.009828   0.000336
     9  C   -0.007350  -0.007315   4.747418  -0.021933  -0.022033   0.368811
    10  H    0.009824  -0.011995  -0.021933   0.699897  -0.038196  -0.007520
    11  H   -0.012029   0.009828  -0.022033  -0.038196   0.699831  -0.007487
    12  C    0.000330   0.000336   0.368811  -0.007520  -0.007487   4.742627
    13  H    0.008386  -0.002096   0.370222   0.009708  -0.012004  -0.022368
    14  H   -0.002082   0.008370   0.370068  -0.012085   0.009714  -0.022419
    15  C    0.000004   0.000005  -0.040858   0.000399   0.000409   0.372634
    16  H    0.000021  -0.000042  -0.022813   0.008129  -0.002036   0.369879
    17  H   -0.000041   0.000020  -0.022789  -0.002016   0.008129   0.370009
    18  C    0.000000   0.000000   0.007938   0.000001   0.000002  -0.042127
    19  H   -0.000011   0.000004  -0.007095   0.000018  -0.000041  -0.022569
    20  H    0.000004  -0.000011  -0.007158  -0.000040   0.000018  -0.022436
    21  C    0.000000   0.000000  -0.000408   0.000000   0.000000   0.007963
    22  H    0.000000   0.000000   0.000370  -0.000011   0.000005  -0.007182
    23  H    0.000000   0.000000   0.000338   0.000005  -0.000011  -0.007100
    24  C    0.000000   0.000000   0.000006   0.000000   0.000000  -0.000394
    25  H    0.000000   0.000000   0.000004   0.000000   0.000000   0.000362
    26  H    0.000000   0.000000   0.000002   0.000000   0.000000   0.000348
    27  C    0.000000   0.000000   0.000000   0.000000   0.000000   0.000006
    28  H    0.000000   0.000000   0.000000   0.000000   0.000000   0.000002
    29  H    0.000000   0.000000   0.000000   0.000000   0.000000  -0.000002
    30  C    0.000000   0.000000   0.000000   0.000000   0.000000   0.000000
    31  H    0.000000   0.000000   0.000000   0.000000   0.000000   0.000000
    32  H    0.000000   0.000000   0.000000   0.000000   0.000000   0.000000
    33  C    0.000000   0.000000   0.000000   0.000000   0.000000   0.000000
    34  H    0.000000   0.000000   0.000000   0.000000   0.000000   0.000000
    35  H    0.000000   0.000000   0.000000   0.000000   0.000000   0.000000
    36  H    0.000000   0.000000   0.000000   0.000000   0.000000   0.000000
              13         14         15         16         17         18
     1  C    0.000276   0.000266   0.000007   0.000007   0.000007   0.000000
     2  C   -0.006690  -0.006704  -0.000378   0.000298   0.000288   0.000006
     3  H    0.000008   0.000008   0.000000   0.000000   0.000000   0.000000
     4  H   -0.000051   0.000025   0.000000   0.000003  -0.000009   0.000000
     5  H    0.000025  -0.000050   0.000000  -0.000009   0.000003   0.000000
     6  C   -0.023542  -0.023490   0.007674  -0.007049  -0.007083  -0.000401
     7  H    0.008386  -0.002082   0.000004   0.000021  -0.000041   0.000000
     8  H   -0.002096   0.008370   0.000005  -0.000042   0.000020   0.000000
     9  C    0.370222   0.370068  -0.040858  -0.022813  -0.022789   0.007938
    10  H    0.009708  -0.012085   0.000399   0.008129  -0.002016   0.000001
    11  H   -0.012004   0.009714   0.000409  -0.002036   0.008129   0.000002
    12  C   -0.022368  -0.022419   0.372634   0.369879   0.370009  -0.042127
    13  H    0.699294  -0.037449  -0.007318   0.009653  -0.012061   0.000359
    14  H   -0.037449   0.699606  -0.007287  -0.011982   0.009657   0.000373
    15  C   -0.007318  -0.007287   4.739316  -0.022247  -0.022453   0.372593
    16  H    0.009653  -0.011982  -0.022247   0.698937  -0.037315  -0.007336
    17  H   -0.012061   0.009657  -0.022453  -0.037315   0.698708  -0.007229
    18  C    0.000359   0.000373   0.372593  -0.007336  -0.007229   4.739907
    19  H    0.008188  -0.002038   0.369991   0.009639  -0.011962  -0.022531
    20  H   -0.002014   0.008180   0.369669  -0.012107   0.009653  -0.022593
    21  C    0.000003   0.000004  -0.041224   0.000359   0.000373   0.369275
    22  H    0.000019  -0.000041  -0.022070   0.008180  -0.002034   0.370085
    23  H   -0.000040   0.000019  -0.022047  -0.001996   0.008147   0.370126
    24  C    0.000000   0.000000   0.007640   0.000002   0.000004  -0.038854
    25  H   -0.000011   0.000005  -0.007333   0.000019  -0.000041  -0.020812
    26  H    0.000005  -0.000011  -0.007034  -0.000039   0.000019  -0.022609
    27  C    0.000000   0.000000  -0.000375   0.000000   0.000000   0.007540
    28  H    0.000000   0.000000   0.000374  -0.000011   0.000004  -0.006291
    29  H    0.000000   0.000000   0.000386   0.000005  -0.000011  -0.008150
    30  C    0.000000   0.000000   0.000005   0.000000   0.000000  -0.000334
    31  H    0.000000   0.000000   0.000002   0.000000   0.000000   0.000428
    32  H    0.000000   0.000000   0.000000   0.000000   0.000000   0.000212
    33  C    0.000000   0.000000   0.000000   0.000000   0.000000   0.000006
    34  H    0.000000   0.000000   0.000000   0.000000   0.000000   0.000000
    35  H    0.000000   0.000000   0.000000   0.000000   0.000000   0.000000
    36  H    0.000000   0.000000   0.000001   0.000000   0.000000  -0.000006
              19         20         21         22         23         24
     1  C    0.000000   0.000000   0.000000   0.000000   0.000000   0.000000
     2  C    0.000003   0.000003   0.000000   0.000000   0.000000   0.000000
     3  H    0.000000   0.000000   0.000000   0.000000   0.000000   0.000000
     4  H    0.000000   0.000000   0.000000   0.000000   0.000000   0.000000
     5  H    0.000000   0.000000   0.000000   0.000000   0.000000   0.000000
     6  C    0.000356   0.000341   0.000006   0.000003   0.000003   0.000000
     7  H   -0.000011   0.000004   0.000000   0.000000   0.000000   0.000000
     8  H    0.000004  -0.000011   0.000000   0.000000   0.000000   0.000000
     9  C   -0.007095  -0.007158  -0.000408   0.000370   0.000338   0.000006
    10  H    0.000018  -0.000040   0.000000  -0.000011   0.000005   0.000000
    11  H   -0.000041   0.000018   0.000000   0.000005  -0.000011   0.000000
    12  C   -0.022569  -0.022436   0.007963  -0.007182  -0.007100  -0.000394
    13  H    0.008188  -0.002014   0.000003   0.000019  -0.000040   0.000000
    14  H   -0.002038   0.008180   0.000004  -0.000041   0.000019   0.000000
    15  C    0.369991   0.369669  -0.041224  -0.022070  -0.022047   0.007640
    16  H    0.009639  -0.012107   0.000359   0.008180  -0.001996   0.000002
    17  H   -0.011962   0.009653   0.000373  -0.002034   0.008147   0.000004
    18  C   -0.022531  -0.022593   0.369275   0.370085   0.370126  -0.038854
    19  H    0.698661  -0.037305  -0.007287   0.009612  -0.012105   0.000360
    20  H   -0.037305   0.699375  -0.007318  -0.011916   0.009607   0.000381
    21  C   -0.007287  -0.007318   4.761654  -0.022779  -0.022561   0.353165
    22  H    0.009612  -0.011916  -0.022779   0.697358  -0.037142  -0.007020
    23  H   -0.012105   0.009607  -0.022561  -0.037142   0.696910  -0.007283
    24  C    0.000360   0.000381   0.353165  -0.007020  -0.007283   4.797722
    25  H    0.008174  -0.002039   0.366699   0.009590  -0.011970  -0.020186
    26  H   -0.001991   0.008121   0.371932  -0.012081   0.009620  -0.026268
    27  C    0.000001   0.000002  -0.037664   0.000272   0.000359   0.361749
    28  H    0.000017  -0.000042  -0.025042   0.008037  -0.002019   0.376729
    29  H   -0.000035   0.000015  -0.018479  -0.001936   0.007871   0.368805
    30  C    0.000000   0.000000   0.007159   0.000014  -0.000005  -0.042737
    31  H   -0.000013   0.000005  -0.007220   0.000010  -0.000024  -0.016360
    32  H    0.000005  -0.000011  -0.007432  -0.000033   0.000018  -0.028072
    33  C    0.000000   0.000000  -0.000443   0.000000   0.000000   0.009037
    34  H    0.000000   0.000000   0.000004   0.000000   0.000000  -0.000016
    35  H    0.000000   0.000000   0.000013   0.000000   0.000000  -0.000219
    36  H    0.000000   0.000000   0.000658  -0.000029   0.000011  -0.013602
              25         26         27         28         29         30
     1  C    0.000000   0.000000   0.000000   0.000000   0.000000   0.000000
     2  C    0.000000   0.000000   0.000000   0.000000   0.000000   0.000000
     3  H    0.000000   0.000000   0.000000   0.000000   0.000000   0.000000
     4  H    0.000000   0.000000   0.000000   0.000000   0.000000   0.000000
     5  H    0.000000   0.000000   0.000000   0.000000   0.000000   0.000000
     6  C    0.000000   0.000000   0.000000   0.000000   0.000000   0.000000
     7  H    0.000000   0.000000   0.000000   0.000000   0.000000   0.000000
     8  H    0.000000   0.000000   0.000000   0.000000   0.000000   0.000000
     9  C    0.000004   0.000002   0.000000   0.000000   0.000000   0.000000
    10  H    0.000000   0.000000   0.000000   0.000000   0.000000   0.000000
    11  H    0.000000   0.000000   0.000000   0.000000   0.000000   0.000000
    12  C    0.000362   0.000348   0.000006   0.000002  -0.000002   0.000000
    13  H   -0.000011   0.000005   0.000000   0.000000   0.000000   0.000000
    14  H    0.000005  -0.000011   0.000000   0.000000   0.000000   0.000000
    15  C   -0.007333  -0.007034  -0.000375   0.000374   0.000386   0.000005
    16  H    0.000019  -0.000039   0.000000  -0.000011   0.000005   0.000000
    17  H   -0.000041   0.000019   0.000000   0.000004  -0.000011   0.000000
    18  C   -0.020812  -0.022609   0.007540  -0.006291  -0.008150  -0.000334
    19  H    0.008174  -0.001991   0.000001   0.000017  -0.000035   0.000000
    20  H   -0.002039   0.008121   0.000002  -0.000042   0.000015   0.000000
    21  C    0.366699   0.371932  -0.037664  -0.025042  -0.018479   0.007159
    22  H    0.009590  -0.012081   0.000272   0.008037  -0.001936   0.000014
    23  H   -0.011970   0.009620   0.000359  -0.002019   0.007871  -0.000005
    24  C   -0.020186  -0.026268   0.361749   0.376729   0.368805  -0.042737
    25  H    0.696398  -0.037315  -0.007289   0.009429  -0.012023   0.000330
    26  H   -0.037315   0.699257  -0.005975  -0.011618   0.009573   0.000377
    27  C   -0.007289  -0.005975   4.700214  -0.030020  -0.023475   0.396362
    28  H    0.009429  -0.011618  -0.030020   0.690751  -0.036747  -0.009419
    29  H   -0.012023   0.009573  -0.023475  -0.036747   0.685320   0.000889
    30  C    0.000330   0.000377   0.396362  -0.009419   0.000889   4.806668
    31  H    0.007687  -0.002174   0.353267   0.009726  -0.012788  -0.036261
    32  H   -0.001934   0.008990   0.391368  -0.011994   0.009661  -0.009102
    33  C    0.000028  -0.000012  -0.060300   0.000626  -0.000011   0.652560
    34  H   -0.000001   0.000000  -0.005676   0.000054  -0.000061  -0.038497
    35  H    0.000000   0.000000   0.006189  -0.000117   0.000034  -0.009301
    36  H    0.000036  -0.000128  -0.048986   0.014566  -0.003279   0.340231
              31         32         33         34         35         36
     1  C    0.000000   0.000000   0.000000   0.000000   0.000000   0.000000
     2  C    0.000000   0.000000   0.000000   0.000000   0.000000   0.000000
     3  H    0.000000   0.000000   0.000000   0.000000   0.000000   0.000000
     4  H    0.000000   0.000000   0.000000   0.000000   0.000000   0.000000
     5  H    0.000000   0.000000   0.000000   0.000000   0.000000   0.000000
     6  C    0.000000   0.000000   0.000000   0.000000   0.000000   0.000000
     7  H    0.000000   0.000000   0.000000   0.000000   0.000000   0.000000
     8  H    0.000000   0.000000   0.000000   0.000000   0.000000   0.000000
     9  C    0.000000   0.000000   0.000000   0.000000   0.000000   0.000000
    10  H    0.000000   0.000000   0.000000   0.000000   0.000000   0.000000
    11  H    0.000000   0.000000   0.000000   0.000000   0.000000   0.000000
    12  C    0.000000   0.000000   0.000000   0.000000   0.000000   0.000000
    13  H    0.000000   0.000000   0.000000   0.000000   0.000000   0.000000
    14  H    0.000000   0.000000   0.000000   0.000000   0.000000   0.000000
    15  C    0.000002   0.000000   0.000000   0.000000   0.000000   0.000001
    16  H    0.000000   0.000000   0.000000   0.000000   0.000000   0.000000
    17  H    0.000000   0.000000   0.000000   0.000000   0.000000   0.000000
    18  C    0.000428   0.000212   0.000006   0.000000   0.000000  -0.000006
    19  H   -0.000013   0.000005   0.000000   0.000000   0.000000   0.000000
    20  H    0.000005  -0.000011   0.000000   0.000000   0.000000   0.000000
    21  C   -0.007220  -0.007432  -0.000443   0.000004   0.000013   0.000658
    22  H    0.000010  -0.000033   0.000000   0.000000   0.000000  -0.000029
    23  H   -0.000024   0.000018   0.000000   0.000000   0.000000   0.000011
    24  C   -0.016360  -0.028072   0.009037  -0.000016  -0.000219  -0.013602
    25  H    0.007687  -0.001934   0.000028  -0.000001   0.000000   0.000036
    26  H   -0.002174   0.008990  -0.000012   0.000000   0.000000  -0.000128
    27  C    0.353267   0.391368  -0.060300  -0.005676   0.006189  -0.048986
    28  H    0.009726  -0.011994   0.000626   0.000054  -0.000117   0.014566
    29  H   -0.012788   0.009661  -0.000011  -0.000061   0.000034  -0.003279
    30  C   -0.036261  -0.009102   0.652560  -0.038497  -0.009301   0.340231
    31  H    0.695271  -0.039333   0.000911   0.003489  -0.000933   0.013775
    32  H   -0.039333   0.668705  -0.013097  -0.000931   0.001136  -0.019392
    33  C    0.000911  -0.013097   4.825289   0.379985   0.385463  -0.042994
    34  H    0.003489  -0.000931   0.379985   0.650319  -0.052578   0.013547
    35  H   -0.000933   0.001136   0.385463  -0.052578   0.643318  -0.032740
    36  H    0.013775  -0.019392  -0.042994   0.013547  -0.032740   0.764010
 Mulliken charges:
               1
     1  C   -0.062144
     2  C   -0.077838
     3  H    0.039316
     4  H    0.035142
     5  H    0.035150
     6  C   -0.062582
     7  H    0.028217
     8  H    0.028135
     9  C   -0.040025
    10  H    0.020454
    11  H    0.020499
    12  C   -0.039814
    13  H    0.019498
    14  H    0.019344
    15  C   -0.040484
    16  H    0.019852
    17  H    0.020021
    18  C   -0.039575
    19  H    0.019953
    20  H    0.019616
    21  C   -0.041410
    22  H    0.020716
    23  H    0.021270
    24  C   -0.074592
    25  H    0.022194
    26  H    0.019010
    27  C    0.002432
    28  H    0.023004
    29  H    0.034439
    30  C   -0.058940
    31  H    0.030535
    32  H    0.051235
    33  C   -0.137046
    34  H    0.050361
    35  H    0.059736
    36  H    0.014321
 Sum of Mulliken charges =   0.00000
 Mulliken charges with hydrogens summed into heavy atoms:
               1
     1  C    0.047464
     2  C   -0.021486
     6  C   -0.021629
     9  C   -0.001183
    12  C    0.000058
    15  C   -0.000915
    18  C    0.002410
    21  C   -0.000206
    24  C   -0.017149
    27  C    0.084203
    30  C   -0.044619
    33  C   -0.026949
 Electronic spatial extent (au):  <R**2>=           7144.8273
 Charge=              0.0000 electrons
 Dipole moment (field-independent basis, Debye):
    X=             -0.5752    Y=              0.4050    Z=             -0.4103  Tot=              0.8144
 Quadrupole moment (field-independent basis, Debye-Ang):
   XX=            -84.9927   YY=            -81.9721   ZZ=            -78.9550
   XY=              2.1875   XZ=             -2.6550   YZ=              0.6118
 Traceless Quadrupole moment (field-independent basis, Debye-Ang):
   XX=             -3.0195   YY=              0.0012   ZZ=              3.0183
   XY=              2.1875   XZ=             -2.6550   YZ=              0.6118
 Octapole moment (field-independent basis, Debye-Ang**2):
  XXX=            -26.3456  YYY=              1.5063  ZZZ=             -0.9145  XYY=             -8.0179
  XXY=             18.1156  XXZ=            -17.2036  XZZ=              0.7485  YZZ=              0.3000
  YYZ=             -0.5235  XYZ=              3.1044
 Hexadecapole moment (field-independent basis, Debye-Ang**3):
 XXXX=          -9722.6159 YYYY=           -268.6229 ZZZZ=           -166.2481 XXXY=             79.4322
 XXXZ=           -110.3590 YYYX=              9.4305 YYYZ=              2.2169 ZZZX=             -7.3917
 ZZZY=             -0.3211 XXYY=          -1705.8053 XXZZ=          -1592.0766 YYZZ=            -67.7961
 XXYZ=             24.6631 YYXZ=             -2.8121 ZZXY=              4.3314
 N-N= 6.501765306258D+02 E-N=-2.386253905358D+03  KE= 4.648516138352D+02
 1\1\GINC-NODE0201\POpt\RM06\def2SVP\C12H24\JGOODPAS\17-Oct-2017\1\\# O
 pt=(Z-mat,maxcycle=200) m06/def2svp Integral=SuperFineGrid\\C12H24\\0,
 1\C\C,1,B1\H,1,B2,2,A2\H,1,B3,2,A3,3,D3,0\H,1,B4,2,A4,3,D4,0\C,2,B5,1,
 A5,3,D5,0\H,2,B6,1,A6,3,D6,0\H,2,B7,1,A7,3,D7,0\C,6,B8,2,A8,1,D8,0\H,6
 ,B9,2,A9,1,D9,0\H,6,B10,2,A10,1,D10,0\C,9,B11,6,A11,2,D11,0\H,9,B12,6,
 A12,2,D12,0\H,9,B13,6,A13,2,D13,0\C,12,B14,9,A14,6,D14,0\H,12,B15,9,A1
 5,6,D15,0\H,12,B16,9,A16,6,D16,0\C,15,B17,12,A17,9,D17,0\H,15,B18,12,A
 18,9,D18,0\H,15,B19,12,A19,9,D19,0\C,18,B20,15,A20,12,D20,0\H,18,B21,1
 5,A21,12,D21,0\H,18,B22,15,A22,12,D22,0\C,21,B23,18,A23,15,D23,0\H,21,
 B24,18,A24,15,D24,0\H,21,B25,18,A25,15,D25,0\C,24,B26,21,A26,18,D26,0\
 H,24,B27,21,A27,18,D27,0\H,24,B28,21,A28,18,D28,0\C,27,B29,24,A29,21,D
 29,0\H,27,B30,24,A30,21,D30,0\H,27,B31,24,A31,21,D31,0\C,30,B32,27,A32
 ,24,D32,0\H,33,B33,30,A33,27,D33,0\H,33,B34,30,A34,27,D34,0\H,30,B35,2
 7,A35,24,D35,0\\B1=1.51594443\B2=1.10117803\A2=112.26339089\B3=1.10338
 876\A3=111.18483689\D3=239.58488285\B4=1.10337875\A4=111.19628262\D4=1
 20.44372469\B5=1.51872858\A5=113.11448435\D5=179.8802903\B6=1.10691103
 \A6=109.99993803\D6=57.63503794\B7=1.10692049\A7=110.00020345\D7=302.1
 3034954\B8=1.51749638\A8=113.76023575\D8=179.95172392\B9=1.10862608\A9
 =109.37769937\D9=57.28392594\B10=1.10862982\A10=109.36249123\D10=302.5
 9403434\B11=1.51764094\A11=113.74917504\D11=179.85187068\B12=1.1084553
 1\A12=109.39142137\D12=57.22548341\B13=1.1084736\A13=109.3879649\D13=3
 02.4757931\B14=1.51762047\A14=113.72270281\D14=179.86492774\B15=1.1084
 0825\A15=109.40689242\D15=57.22863146\B16=1.10841239\A16=109.38992701\
 D16=302.47047303\B17=1.51759351\A17=113.71084302\D17=179.76232513\B18=
 1.1083912\A18=109.40198525\D18=57.13550515\B19=1.10844239\A19=109.3865
 1056\D19=302.37747205\B20=1.51763472\A20=113.69266445\D20=179.7314844\
 B21=1.1083398\A21=109.41556955\D21=57.07891113\B22=1.10830828\A22=109.
 39945011\D22=302.29765566\B23=1.51752434\A23=113.59116545\D23=179.6479
 5067\B24=1.10816169\A24=109.35835466\D24=56.99029716\B25=1.10864514\A2
 5=109.37044762\D25=302.21977553\B26=1.51818006\A26=113.09261901\D26=17
 9.20118036\B27=1.10819985\A27=109.46886689\D27=56.95014182\B28=1.10654
 657\A28=109.63336431\D28=301.76432143\B29=1.51080742\A29=114.49895906\
 D29=186.88040347\B30=1.10894104\A30=109.16476017\D30=57.57359952\B31=1
 .10576787\A31=109.49910295\D31=302.4235322\B32=1.34880582\A32=138.9846
 9881\D32=179.01003998\B33=1.10123566\A33=124.34073278\B34=1.0964085\A3
 4=120.38590207\B35=1.11775836\A35=98.93466716\D35=54.79649228\D33=75.\
 D34=255.\\Version=ES64L-G09RevD.01\State=1-A\HF=-470.9224099\RMSD=4.43
 9e-09\RMSF=8.734e-03\Dipole=0.2711309,-0.142703,-0.0937249\Quadrupole=
 -2.4166198,2.3584018,0.058218,1.1474223,1.7252533,-1.3379392\PG=C01 [X
 (C12H24)]\\@


 WHERE THERE IS MUCH DESIRE TO LEARN, THERE OF NECESSITY WILL BE
 MUCH ARGUING, MUCH WRITING, MANY OPINIONS; FOR OPINION IN GOOD MEN
 IS BUT KNOWLEDGE IN THE MAKING. -- JOHN MILTON.
 Job cpu time:       0 days  5 hours  8 minutes 41.5 seconds.
 File lengths (MBytes):  RWF=     40 Int=      0 D2E=      0 Chk=     18 Scr=      1
 Normal termination of Gaussian 09 at Tue Oct 17 17:31:02 2017.
17813.22user 708.27system 42:00.95elapsed 734%CPU (0avgtext+0avgdata 7505568maxresident)k
328584inputs+1710328outputs (243major+448853465minor)pagefaults 0swaps
