 Entering Gaussian System, Link 0=g09
 Initial command:
 /soft/gaussian/g09.d01_itasca/g09/l1.exe "/scratch/jgoodpas/2034006.node1081.localdomain/Gau-13008.inp" -scrdir="/scratch/jgoodpas/2034006.node1081.localdomain/"
 Entering Link 1 = /soft/gaussian/g09.d01_itasca/g09/l1.exe PID=     13009.
  
 Copyright (c) 1988,1990,1992,1993,1995,1998,2003,2009,2013,
            Gaussian, Inc.  All Rights Reserved.
  
 This is part of the Gaussian(R) 09 program.  It is based on
 the Gaussian(R) 03 system (copyright 2003, Gaussian, Inc.),
 the Gaussian(R) 98 system (copyright 1998, Gaussian, Inc.),
 the Gaussian(R) 94 system (copyright 1995, Gaussian, Inc.),
 the Gaussian 92(TM) system (copyright 1992, Gaussian, Inc.),
 the Gaussian 90(TM) system (copyright 1990, Gaussian, Inc.),
 the Gaussian 88(TM) system (copyright 1988, Gaussian, Inc.),
 the Gaussian 86(TM) system (copyright 1986, Carnegie Mellon
 University), and the Gaussian 82(TM) system (copyright 1983,
 Carnegie Mellon University). Gaussian is a federally registered
 trademark of Gaussian, Inc.
  
 This software contains proprietary and confidential information,
 including trade secrets, belonging to Gaussian, Inc.
  
 This software is provided under written license and may be
 used, copied, transmitted, or stored only in accord with that
 written license.
  
 The following legend is applicable only to US Government
 contracts under FAR:
  
                    RESTRICTED RIGHTS LEGEND
  
 Use, reproduction and disclosure by the US Government is
 subject to restrictions as set forth in subparagraphs (a)
 and (c) of the Commercial Computer Software - Restricted
 Rights clause in FAR 52.227-19.
  
 Gaussian, Inc.
 340 Quinnipiac St., Bldg. 40, Wallingford CT 06492
  
  
 ---------------------------------------------------------------
 Warning -- This program may not be used in any manner that
 competes with the business of Gaussian, Inc. or will provide
 assistance to any competitor of Gaussian, Inc.  The licensee
 of this program is prohibited from giving any competitor of
 Gaussian, Inc. access to this program.  By using this program,
 the user acknowledges that Gaussian, Inc. is engaged in the
 business of creating and licensing software in the field of
 computational chemistry and represents and warrants to the
 licensee that it is not a competitor of Gaussian, Inc. and that
 it will not use this program in any manner prohibited above.
 ---------------------------------------------------------------
  

 Cite this work as:
 Gaussian 09, Revision D.01,
 M. J. Frisch, G. W. Trucks, H. B. Schlegel, G. E. Scuseria, 
 M. A. Robb, J. R. Cheeseman, G. Scalmani, V. Barone, B. Mennucci, 
 G. A. Petersson, H. Nakatsuji, M. Caricato, X. Li, H. P. Hratchian, 
 A. F. Izmaylov, J. Bloino, G. Zheng, J. L. Sonnenberg, M. Hada, 
 M. Ehara, K. Toyota, R. Fukuda, J. Hasegawa, M. Ishida, T. Nakajima, 
 Y. Honda, O. Kitao, H. Nakai, T. Vreven, J. A. Montgomery, Jr., 
 J. E. Peralta, F. Ogliaro, M. Bearpark, J. J. Heyd, E. Brothers, 
 K. N. Kudin, V. N. Staroverov, T. Keith, R. Kobayashi, J. Normand, 
 K. Raghavachari, A. Rendell, J. C. Burant, S. S. Iyengar, J. Tomasi, 
 M. Cossi, N. Rega, J. M. Millam, M. Klene, J. E. Knox, J. B. Cross, 
 V. Bakken, C. Adamo, J. Jaramillo, R. Gomperts, R. E. Stratmann, 
 O. Yazyev, A. J. Austin, R. Cammi, C. Pomelli, J. W. Ochterski, 
 R. L. Martin, K. Morokuma, V. G. Zakrzewski, G. A. Voth, 
 P. Salvador, J. J. Dannenberg, S. Dapprich, A. D. Daniels, 
 O. Farkas, J. B. Foresman, J. V. Ortiz, J. Cioslowski, 
 and D. J. Fox, Gaussian, Inc., Wallingford CT, 2013.
 
 ******************************************
 Gaussian 09:  ES64L-G09RevD.01 24-Apr-2013
                17-Oct-2017 
 ******************************************
 %LindaWorkers=ic-node0235
 %Mem=11800mb
 %NProcShared=8
 Will use up to    8 processors via shared memory.
 %chk=dimer.chk
 SetLPE:  input flags=" -workerwait 250000 -opt "Tsnet.Node.lindarsharg: ssh " "
 SetLPE:    new flags=" -workerwait 250000 -opt "Tsnet.Node.lindarsharg: ssh "  -nodelist 'ic-node0235'"
 Will use up to    1 processors via Linda.
 -------------------------------------------------------------
 # Opt=(Z-mat,maxcycle=200) m06/def2svp Integral=SuperFineGrid
 -------------------------------------------------------------
 1/6=200,10=7,14=-1,18=40,26=5,38=1/1,3;
 2/12=2,17=6,18=5,29=3,40=1/2;
 3/5=43,7=101,11=2,16=1,25=1,30=1,71=1,74=-54,75=-7/1,2,3;
 4//1;
 5/5=2,38=5/2;
 6/7=2,8=2,9=2,10=2,28=1/1;
 7/29=1/1,2,3,16;
 1/6=200,10=7,14=-1,18=40,26=5/3(2);
 2/29=3/2;
 99//99;
 2/29=3/2;
 3/5=43,7=101,11=2,16=1,25=1,30=1,71=1,74=-54,75=-7/1,2,3;
 4/5=5,16=3,69=1/1;
 5/5=2,38=5/2;
 7//1,2,3,16;
 1/6=200,14=-1,18=40,26=5/3(-5);
 2/29=3/2;
 6/7=2,8=2,9=2,10=2,19=2,28=1/1;
 99/9=1/99;
 ------
 C12H24
 ------
 Symbolic Z-matrix:
 Charge =  0 Multiplicity = 1
 C
 C                    1    B1
 H                    1    B2       2    A2
 H                    1    B3       2    A3       3    D3       0
 H                    1    B4       2    A4       3    D4       0
 C                    2    B5       1    A5       3    D5       0
 H                    2    B6       1    A6       3    D6       0
 H                    2    B7       1    A7       3    D7       0
 C                    6    B8       2    A8       1    D8       0
 H                    6    B9       2    A9       1    D9       0
 H                    6    B10      2    A10      1    D10      0
 C                    9    B11      6    A11      2    D11      0
 H                    9    B12      6    A12      2    D12      0
 H                    9    B13      6    A13      2    D13      0
 C                    12   B14      9    A14      6    D14      0
 H                    12   B15      9    A15      6    D15      0
 H                    12   B16      9    A16      6    D16      0
 C                    15   B17      12   A17      9    D17      0
 H                    15   B18      12   A18      9    D18      0
 H                    15   B19      12   A19      9    D19      0
 C                    18   B20      15   A20      12   D20      0
 H                    18   B21      15   A21      12   D21      0
 H                    18   B22      15   A22      12   D22      0
 C                    21   B23      18   A23      15   D23      0
 H                    21   B24      18   A24      15   D24      0
 H                    21   B25      18   A25      15   D25      0
 C                    24   B26      21   A26      18   D26      0
 H                    24   B27      21   A27      18   D27      0
 H                    24   B28      21   A28      18   D28      0
 C                    27   B29      24   A29      21   D29      0
 H                    27   B30      24   A30      21   D30      0
 H                    27   B31      24   A31      21   D31      0
 C                    30   B32      27   A32      24   D32      0
 H                    33   B33      30   A33      27   D33      0
 H                    33   B34      30   A34      27   D34      0
 H                    30   B35      27   A35      24   D35      0
       Variables:
  B1                    1.52037                  
  B2                    1.09449                  
  A2                  110.2615                   
  B3                    1.09469                  
  A3                  110.99941                  
  D3                  240.2622                   
  B4                    1.09468                  
  A4                  111.00291                  
  D4                  119.74267                  
  B5                    1.52846                  
  A5                  111.49348                  
  D5                  180.02355                  
  B6                    1.09622                  
  A6                  109.14402                  
  D6                   58.466                    
  B7                    1.09622                  
  A7                  109.14651                  
  D7                  301.57536                  
  B8                    1.52957                  
  A8                  111.33085                  
  D8                  180.06732                  
  B9                    1.09685                  
  A9                  109.56808                  
  D9                   58.69294                  
  B10                   1.09685                  
  A10                 109.56982                  
  D10                 301.43153                  
  B11                   1.52959                  
  A11                 111.32932                  
  D11                 180.0495                   
  B12                   1.09682                  
  A12                 109.56214                  
  D12                  58.69169                  
  B13                   1.09682                  
  A13                 109.57144                  
  D13                 301.40424                  
  B14                   1.52958                  
  A14                 111.33412                  
  D14                 180.11548                  
  B15                   1.09681                  
  A15                 109.56324                  
  D15                  58.75236                  
  B16                   1.09681                  
  A16                 109.56894                  
  D16                 301.4668                   
  B17                   1.52958                  
  A17                 111.32441                  
  D17                 180.06818                  
  B18                   1.09681                  
  A18                 109.56207                  
  D18                  58.71257                  
  B19                   1.09681                  
  A19                 109.57415                  
  D19                 301.42268                  
  B20                   1.5296                   
  A20                 111.33392                  
  D20                 180.12584                  
  B21                   1.09681                  
  A21                 109.56096                  
  D21                  58.76319                  
  B22                   1.09681                  
  A22                 109.57002                  
  D22                 301.47796                  
  B23                   1.53006                  
  A23                 111.33208                  
  D23                 180.06793                  
  B24                   1.09681                  
  A24                 109.55355                  
  D24                  58.71484                  
  B25                   1.09681                  
  A25                 109.57481                  
  D25                 301.41764                  
  B26                   1.52997                  
  A26                 111.27387                  
  D26                 180.07455                  
  B27                   1.09745                  
  A27                 109.45602                  
  D27                  58.51678                  
  B28                   1.09744                  
  A28                 109.4982                   
  D28                 301.54273                  
  B29                   1.50175                  
  A29                 111.29171                  
  D29                 180.59371                  
  B30                   1.0969                   
  A30                 109.65896                  
  D30                  57.82495                  
  B31                   1.09657                  
  A31                 109.82846                  
  D31                 300.6713                   
  B32                   1.33889                  
  A32                 124.10415                  
  D32                 241.95558                  
  B33                   1.08555                  
  A33                 121.75919                  
  B34                   1.08571                  
  A34                 120.7488                   
  B35                   1.08828                  
  A35                 116.90896                  
  D35                  62.58421                  
       Constants:
  D33                 105.                       
  D34                 285.                       
 

 GradGradGradGradGradGradGradGradGradGradGradGradGradGradGradGradGradGrad
 Berny optimization.
 Initialization pass.
                       ----------------------------
                       !    Initial Parameters    !
                       ! (Angstroms and Degrees)  !
 ----------------------                            ----------------------
 !      Name          Value   Derivative information (Atomic Units)     !
 ------------------------------------------------------------------------
 !       B1          1.5204   estimate D2E/DX2                          !
 !       B2          1.0945   estimate D2E/DX2                          !
 !       A2        110.2615   estimate D2E/DX2                          !
 !       B3          1.0947   estimate D2E/DX2                          !
 !       A3        110.9994   estimate D2E/DX2                          !
 !       D3        240.2622   estimate D2E/DX2                          !
 !       B4          1.0947   estimate D2E/DX2                          !
 !       A4        111.0029   estimate D2E/DX2                          !
 !       D4        119.7427   estimate D2E/DX2                          !
 !       B5          1.5285   estimate D2E/DX2                          !
 !       A5        111.4935   estimate D2E/DX2                          !
 !       D5        180.0236   estimate D2E/DX2                          !
 !       B6          1.0962   estimate D2E/DX2                          !
 !       A6        109.144    estimate D2E/DX2                          !
 !       D6         58.466    estimate D2E/DX2                          !
 !       B7          1.0962   estimate D2E/DX2                          !
 !       A7        109.1465   estimate D2E/DX2                          !
 !       D7        301.5754   estimate D2E/DX2                          !
 !       B8          1.5296   estimate D2E/DX2                          !
 !       A8        111.3308   estimate D2E/DX2                          !
 !       D8        180.0673   estimate D2E/DX2                          !
 !       B9          1.0969   estimate D2E/DX2                          !
 !       A9        109.5681   estimate D2E/DX2                          !
 !       D9         58.6929   estimate D2E/DX2                          !
 !       B10         1.0969   estimate D2E/DX2                          !
 !       A10       109.5698   estimate D2E/DX2                          !
 !       D10       301.4315   estimate D2E/DX2                          !
 !       B11         1.5296   estimate D2E/DX2                          !
 !       A11       111.3293   estimate D2E/DX2                          !
 !       D11       180.0495   estimate D2E/DX2                          !
 !       B12         1.0968   estimate D2E/DX2                          !
 !       A12       109.5621   estimate D2E/DX2                          !
 !       D12        58.6917   estimate D2E/DX2                          !
 !       B13         1.0968   estimate D2E/DX2                          !
 !       A13       109.5714   estimate D2E/DX2                          !
 !       D13       301.4042   estimate D2E/DX2                          !
 !       B14         1.5296   estimate D2E/DX2                          !
 !       A14       111.3341   estimate D2E/DX2                          !
 !       D14       180.1155   estimate D2E/DX2                          !
 !       B15         1.0968   estimate D2E/DX2                          !
 !       A15       109.5632   estimate D2E/DX2                          !
 !       D15        58.7524   estimate D2E/DX2                          !
 !       B16         1.0968   estimate D2E/DX2                          !
 !       A16       109.5689   estimate D2E/DX2                          !
 !       D16       301.4668   estimate D2E/DX2                          !
 !       B17         1.5296   estimate D2E/DX2                          !
 !       A17       111.3244   estimate D2E/DX2                          !
 !       D17       180.0682   estimate D2E/DX2                          !
 !       B18         1.0968   estimate D2E/DX2                          !
 !       A18       109.5621   estimate D2E/DX2                          !
 !       D18        58.7126   estimate D2E/DX2                          !
 !       B19         1.0968   estimate D2E/DX2                          !
 !       A19       109.5742   estimate D2E/DX2                          !
 !       D19       301.4227   estimate D2E/DX2                          !
 !       B20         1.5296   estimate D2E/DX2                          !
 !       A20       111.3339   estimate D2E/DX2                          !
 !       D20       180.1258   estimate D2E/DX2                          !
 !       B21         1.0968   estimate D2E/DX2                          !
 !       A21       109.561    estimate D2E/DX2                          !
 !       D21        58.7632   estimate D2E/DX2                          !
 !       B22         1.0968   estimate D2E/DX2                          !
 !       A22       109.57     estimate D2E/DX2                          !
 !       D22       301.478    estimate D2E/DX2                          !
 !       B23         1.5301   estimate D2E/DX2                          !
 !       A23       111.3321   estimate D2E/DX2                          !
 !       D23       180.0679   estimate D2E/DX2                          !
 !       B24         1.0968   estimate D2E/DX2                          !
 !       A24       109.5536   estimate D2E/DX2                          !
 !       D24        58.7148   estimate D2E/DX2                          !
 !       B25         1.0968   estimate D2E/DX2                          !
 !       A25       109.5748   estimate D2E/DX2                          !
 !       D25       301.4176   estimate D2E/DX2                          !
 !       B26         1.53     estimate D2E/DX2                          !
 !       A26       111.2739   estimate D2E/DX2                          !
 !       D26       180.0745   estimate D2E/DX2                          !
 !       B27         1.0975   estimate D2E/DX2                          !
 !       A27       109.456    estimate D2E/DX2                          !
 !       D27        58.5168   estimate D2E/DX2                          !
 !       B28         1.0974   estimate D2E/DX2                          !
 !       A28       109.4982   estimate D2E/DX2                          !
 !       D28       301.5427   estimate D2E/DX2                          !
 !       B29         1.5018   estimate D2E/DX2                          !
 !       A29       111.2917   estimate D2E/DX2                          !
 !       D29       180.5937   estimate D2E/DX2                          !
 !       B30         1.0969   estimate D2E/DX2                          !
 !       A30       109.659    estimate D2E/DX2                          !
 !       D30        57.8249   estimate D2E/DX2                          !
 !       B31         1.0966   estimate D2E/DX2                          !
 !       A31       109.8285   estimate D2E/DX2                          !
 !       D31       300.6713   estimate D2E/DX2                          !
 !       B32         1.3389   estimate D2E/DX2                          !
 !       A32       124.1042   estimate D2E/DX2                          !
 !       D32       241.9556   estimate D2E/DX2                          !
 !       B33         1.0856   estimate D2E/DX2                          !
 !       A33       121.7592   estimate D2E/DX2                          !
 !       B34         1.0857   estimate D2E/DX2                          !
 !       A34       120.7488   estimate D2E/DX2                          !
 !       B35         1.0883   estimate D2E/DX2                          !
 !       A35       116.909    estimate D2E/DX2                          !
 !       D35        62.5842   estimate D2E/DX2                          !
 !       D33       105.0      Frozen                                    !
 !       D34       285.0      Frozen                                    !
 ------------------------------------------------------------------------
 Trust Radius=3.00D-01 FncErr=1.00D-07 GrdErr=1.00D-07
 Number of steps in this run=    200 maximum allowed number of steps=    204.
 GradGradGradGradGradGradGradGradGradGradGradGradGradGradGradGradGradGrad

 ---------------------------------------------------------------------------------------------------
                            Z-MATRIX (ANGSTROMS AND DEGREES)
   CD    Cent   Atom    N1       Length/X        N2       Alpha/Y        N3        Beta/Z          J
 ---------------------------------------------------------------------------------------------------
      1      1  C 
      2      2  C        1   1.520370(     1)
      3      3  H        1   1.094490(     2)      2  110.262(    36)
      4      4  H        1   1.094690(     3)      2  110.999(    37)      3  240.262(    70)      0
      5      5  H        1   1.094680(     4)      2  111.003(    38)      3  119.743(    71)      0
      6      6  C        2   1.528460(     5)      1  111.493(    39)      3  180.024(    72)      0
      7      7  H        2   1.096220(     6)      1  109.144(    40)      3   58.466(    73)      0
      8      8  H        2   1.096220(     7)      1  109.147(    41)      3  301.575(    74)      0
      9      9  C        6   1.529570(     8)      2  111.331(    42)      1  180.067(    75)      0
     10     10  H        6   1.096850(     9)      2  109.568(    43)      1   58.693(    76)      0
     11     11  H        6   1.096850(    10)      2  109.570(    44)      1  301.432(    77)      0
     12     12  C        9   1.529590(    11)      6  111.329(    45)      2  180.050(    78)      0
     13     13  H        9   1.096820(    12)      6  109.562(    46)      2   58.692(    79)      0
     14     14  H        9   1.096820(    13)      6  109.571(    47)      2  301.404(    80)      0
     15     15  C       12   1.529580(    14)      9  111.334(    48)      6  180.115(    81)      0
     16     16  H       12   1.096810(    15)      9  109.563(    49)      6   58.752(    82)      0
     17     17  H       12   1.096810(    16)      9  109.569(    50)      6  301.467(    83)      0
     18     18  C       15   1.529580(    17)     12  111.324(    51)      9  180.068(    84)      0
     19     19  H       15   1.096810(    18)     12  109.562(    52)      9   58.713(    85)      0
     20     20  H       15   1.096810(    19)     12  109.574(    53)      9  301.423(    86)      0
     21     21  C       18   1.529600(    20)     15  111.334(    54)     12  180.126(    87)      0
     22     22  H       18   1.096810(    21)     15  109.561(    55)     12   58.763(    88)      0
     23     23  H       18   1.096810(    22)     15  109.570(    56)     12  301.478(    89)      0
     24     24  C       21   1.530060(    23)     18  111.332(    57)     15  180.068(    90)      0
     25     25  H       21   1.096810(    24)     18  109.554(    58)     15   58.715(    91)      0
     26     26  H       21   1.096810(    25)     18  109.575(    59)     15  301.418(    92)      0
     27     27  C       24   1.529970(    26)     21  111.274(    60)     18  180.075(    93)      0
     28     28  H       24   1.097450(    27)     21  109.456(    61)     18   58.517(    94)      0
     29     29  H       24   1.097440(    28)     21  109.498(    62)     18  301.543(    95)      0
     30     30  C       27   1.501750(    29)     24  111.292(    63)     21  180.594(    96)      0
     31     31  H       27   1.096900(    30)     24  109.659(    64)     21   57.825(    97)      0
     32     32  H       27   1.096570(    31)     24  109.828(    65)     21  300.671(    98)      0
     33     33  C       30   1.338890(    32)     27  124.104(    66)     24  241.956(    99)      0
     34     34  H       33   1.085550(    33)     30  121.759(    67)     27  105.000(   100)      0
     35     35  H       33   1.085710(    34)     30  120.749(    68)     27  285.000(   101)      0
     36     36  H       30   1.088280(    35)     27  116.909(    69)     24   62.584(   102)      0
 ---------------------------------------------------------------------------------------------------
                         Z-Matrix orientation:                         
 ---------------------------------------------------------------------
 Center     Atomic      Atomic             Coordinates (Angstroms)
 Number     Number       Type             X           Y           Z
 ---------------------------------------------------------------------
      1          6           0        0.000000    0.000000    0.000000
      2          6           0        0.000000    0.000000    1.520370
      3          1           0        1.026765    0.000000   -0.379028
      4          1           0       -0.506937    0.887394   -0.392291
      5          1           0       -0.506996   -0.887322   -0.392350
      6          6           0       -1.422170   -0.000585    2.080391
      7          1           0        0.541621    0.882669    1.879869
      8          1           0        0.542250   -0.882265    1.879914
      9          6           0       -1.417829    0.001091    3.609954
     10          1           0       -1.960390   -0.883823    1.715305
     11          1           0       -1.961845    0.881033    1.713538
     12          6           0       -2.841064   -0.000725    4.170352
     13          1           0       -0.880476    0.884957    3.974709
     14          1           0       -0.877544   -0.880117    3.976802
     15          6           0       -2.836857    0.003823    5.699919
     16          1           0       -3.377699   -0.885606    3.807035
     17          1           0       -3.382035    0.879433    3.802024
     18          6           0       -4.260172    0.000310    6.260077
     19          1           0       -2.301279    0.889417    6.063059
     20          1           0       -2.294922   -0.875633    6.068507
     21          6           0       -4.256232    0.007986    7.789653
     22          1           0       -4.794941   -0.886396    5.898461
     23          1           0       -4.802856    0.878620    5.889863
     24          6           0       -5.680003    0.002782    8.349950
     25          1           0       -3.722490    0.895453    8.150919
     26          1           0       -3.712685   -0.869677    8.160135
     27          6           0       -5.674519    0.012323    9.879880
     28          1           0       -6.213070   -0.884521    7.985355
     29          1           0       -6.223979    0.879534    7.976089
     30          6           0       -7.071612   -0.007278   10.430335
     31          1           0       -5.128482    0.892261   10.241464
     32          1           0       -5.141577   -0.869376   10.255440
     33          6           0       -7.595135    0.967368   11.184400
     34          1           0       -8.318917    1.671617   10.786164
     35          1           0       -7.306361    1.079993   12.224925
     36          1           0       -7.679357   -0.880293   10.200458
 ---------------------------------------------------------------------
                    Distance matrix (angstroms):
                    1          2          3          4          5
     1  C    0.000000
     2  C    1.520370   0.000000
     3  H    1.094490   2.159157   0.000000
     4  H    1.094690   2.168577   1.771972   0.000000
     5  H    1.094680   2.168613   1.771988   1.774717   0.000000
     6  C    2.520038   1.528460   3.470738   2.782142   2.781779
     7  H    2.146244   1.096220   2.473274   2.502440   3.065199
     8  H    2.146276   1.096220   2.473047   3.065192   2.502823
     9  C    3.878402   2.525193   4.678463   4.199193   4.199682
    10  H    2.750735   2.159230   3.753727   3.113149   2.560191
    11  H    2.749776   2.159252   3.753244   2.559554   3.111018
    12  C    5.046135   3.885106   5.971344   5.201405   5.201170
    13  H    4.166137   2.753574   4.834847   4.382948   4.727755
    14  H    4.166491   2.752953   4.834693   4.727624   4.384843
    15  C    6.366856   5.051376   7.202859   6.582116   6.583171
    16  H    5.165913   4.173965   6.140580   5.386942   5.086823
    17  H    5.164005   4.173428   6.139390   5.085128   5.383311
    18  C    7.572162   6.372903   8.487015   7.689454   7.689539
    19  H    6.545810   5.169427   7.305301   6.700091   6.931707
    20  H    6.546768   5.169037   7.305548   6.931599   6.703692
    21  C    8.876613   7.577564   9.728179   9.042941   9.044530
    22  H    7.653038   6.553231   8.607254   7.817088   7.613197
    23  H    7.650482   6.552241   8.605547   7.610549   7.812756
    24  C   10.098718   8.882882  11.007988  10.196564  10.197063
    25  H    9.005346   7.656563   9.803941   9.128324   9.300814
    26  H    9.007118   7.656817   9.804898   9.300974   9.133551
    27  C   11.393522  10.103550  12.253675  11.532006  11.533922
    28  H   10.156304   9.010030  11.097769  10.290024  10.136332
    29  H   10.155269   9.010427  11.097515  10.134812  10.287684
    30  C   12.601572  11.375202  13.506520  12.689548  12.688545
    31  H   11.488475  10.156522  12.307642  11.594631  11.730433
    32  H   11.505028  10.173154  12.324616  11.744799  11.612713
    33  C   13.554065  12.329451  14.456342  13.574562  13.700465
    34  H   13.723703  12.563981  14.655975  13.660158  13.875643
    35  H   14.282790  13.005260  15.148168  14.333994  14.467112
    36  H   12.798312  11.622882  13.729421  12.914127  12.792592
                    6          7          8          9         10
     6  C    0.000000
     7  H    2.162596   0.000000
     8  H    2.162521   1.764935   0.000000
     9  C    1.529570   2.758590   2.759577   0.000000
    10  H    1.096850   3.067188   2.508049   2.160357   0.000000
    11  H    1.096850   2.508986   3.067147   2.160241   1.764858
    12  C    2.526103   4.179624   4.179717   1.529590   2.753671
    13  H    2.160106   2.531941   3.087943   1.096820   3.065894
    14  H    2.160225   3.085219   2.532343   1.096820   2.507378
    15  C    3.886174   5.174869   5.176481   2.526184   4.175316
    16  H    2.754752   4.711883   4.368044   2.160130   2.526678
    17  H    2.753093   4.369184   4.711486   2.160203   3.079698
    18  C    5.052132   6.559116   6.559576   3.886138   5.169685
    19  H    4.174516   5.057787   5.359405   2.754511   4.707818
    20  H    4.175222   5.355585   5.059042   2.753620   4.366045
    21  C    6.373983   7.662246   7.664398   5.052372   6.554687
    22  H    5.170871   6.910685   6.680894   4.174899   5.053066
    23  H    5.168570   6.681580   6.910178   4.174500   5.349089
    24  C    7.578689   9.019133   9.020039   6.374456   7.657682
    25  H    6.553295   7.583462   7.789339   5.170272   6.905647
    26  H    6.554775   7.785345   7.585896   5.169986   6.678816
    27  C    8.883393  10.168485  10.170937   7.578358   9.014328
    28  H    7.655238   9.275008   9.105535   6.551548   7.576200
    29  H    7.654491   9.106989   9.276268   6.552394   7.777212
    30  C   10.081558  11.483196  11.482430   8.859059  10.141236
    31  H    9.007611  10.102794  10.257762   7.651148   9.267507
    32  H    9.023315  10.272224  10.122030   7.667235   9.113400
    33  C   11.041984  12.360756  12.498466   9.821662  11.173228
    34  H   11.231735  12.587839  12.820449  10.095230  11.368449
    35  H   11.777221  12.986529  13.132799  10.490785  11.953580
    36  H   10.288916  11.828979  11.697277   9.133363  10.232518
                   11         12         13         14         15
    11  H    0.000000
    12  C    2.754352   0.000000
    13  H    2.506446   2.160234   0.000000
    14  H    3.065897   2.160139   1.765078   0.000000
    15  C    4.174491   1.529580   2.753212   2.754885   0.000000
    16  H    3.083567   1.096810   3.065801   2.505919   2.160233
    17  H    2.525611   1.096810   2.507518   3.065785   2.160074
    18  C    5.170010   2.526029   4.174668   4.175006   1.529580
    19  H    4.362754   2.160107   2.525848   3.083949   1.096810
    20  H    4.707714   2.160261   3.079663   2.526699   1.096810
    21  C    6.553289   3.886145   5.169004   5.171276   2.526189
    22  H    5.353860   2.754707   4.707605   4.363349   2.160092
    23  H    5.051043   2.752925   4.364965   4.707550   2.160208
    24  C    7.657544   5.052586   6.554115   6.554963   3.886662
    25  H    6.673826   4.174322   5.051523   5.354402   2.754406
    26  H    6.905725   4.175306   5.349574   5.053554   2.753678
    27  C    9.012644   6.373959   7.656068   7.658573   5.052175
    28  H    7.779832   5.167763   6.903107   6.673556   4.172671
    29  H    7.575310   5.167456   6.675634   6.904711   4.173777
    30  C   10.143045   7.555459   8.988957   8.987569   6.349024
    31  H    9.096881   6.548902   7.570854   7.775461   5.163962
    32  H    9.281094   6.563171   7.789881   7.589689   5.179477
    33  C   11.019920   8.528498   9.852567  10.024405   7.324559
    34  H   11.106302   8.750576  10.116579  10.404460   7.661880
    35  H   11.793756   9.272701  10.459259  10.639701   7.981874
    36  H   10.383642   7.781061   9.386205   9.219466   6.669807
                   16         17         18         19         20
    16  H    0.000000
    17  H    1.765051   0.000000
    18  C    2.753366   2.754271   0.000000
    19  H    3.065784   2.506075   2.160229   0.000000
    20  H    2.507341   3.065781   2.160135   1.765070   0.000000
    21  C    4.175114   4.174306   1.529600   2.753160   2.754971
    22  H    2.526388   3.083748   1.096810   3.065771   2.505818
    23  H    3.079243   2.525432   1.096810   2.507588   3.065787
    24  C    5.169905   5.170378   2.526558   4.175137   4.175568
    25  H    4.707482   4.362231   2.160015   2.525676   3.084013
    26  H    4.366000   4.707638   2.160287   3.079644   2.526855
    27  C    6.554472   6.553449   3.886321   5.168768   5.170755
    28  H    5.049524   5.350379   2.751966   4.705761   4.361911
    29  H    5.347714   5.049700   2.752139   4.364327   4.707119
    30  C    7.634432   7.637653   5.029443   6.529413   6.526588
    31  H    6.901300   6.672079   4.171449   5.045013   5.344912
    32  H    6.685317   6.913819   4.182840   5.360662   5.062992
    33  C    8.697460   8.500437   6.025457   7.366079   7.593502
    34  H    8.925429   8.589446   6.304930   7.689703   8.064322
    35  H    9.495201   9.294397   6.784128   7.940765   8.175602
    36  H    7.705852   7.905921   5.290831   7.012394   6.787134
                   21         22         23         24         25
    21  C    0.000000
    22  H    2.160262   0.000000
    23  H    2.160093   1.765055   0.000000
    24  C    1.530060   2.753865   2.754724   0.000000
    25  H    1.096810   3.065731   2.505963   2.160632   0.000000
    26  H    1.096810   2.507335   3.065803   2.160452   1.765182
    27  C    2.525986   4.175291   4.174985   1.529970   2.753114
    28  H    2.159649   2.523137   3.080334   1.097450   3.065731
    29  H    2.160181   3.078506   2.524268   1.097440   2.507641
    30  C    3.860025   5.147228   5.152471   2.502934   4.150575
    31  H    2.748480   4.704950   4.363789   2.161753   2.519365
    32  H    2.762916   4.370779   4.714709   2.163667   3.091510
    33  C    4.857262   6.262482   5.986387   3.554190   4.919812
    34  H    5.315276   6.546105   6.079910   3.960305   5.354819
    35  H    5.488545   7.085059   6.814771   4.338301   5.429153
    36  H    4.280048   5.179486   5.472593   2.863847   4.796945
                   26         27         28         29         30
    26  H    0.000000
    27  C    2.753949   0.000000
    28  H    2.506530   2.164161   0.000000
    29  H    3.065976   2.162957   1.764112   0.000000
    30  C    4.144867   1.501750   2.735795   2.743764   0.000000
    31  H    3.072595   1.096900   3.069742   2.516387   2.149557
    32  H    2.536145   1.096570   2.510302   3.070134   2.121046
    33  C    5.253030   2.510508   3.946326   3.490136   1.338890
    34  H    5.879760   3.250761   4.337391   3.593423   2.121573
    35  H    5.765261   3.049928   4.798807   4.389116   2.111355
    36  H    4.460663   2.217862   2.656445   3.187936   1.088280
                   31         32         33         34         35
    31  H    0.000000
    32  H    1.761741   0.000000
    33  C    2.641807   3.202584   0.000000
    34  H    3.329109   4.102902   1.085550   0.000000
    35  H    2.951697   3.516418   1.085710   1.856157   0.000000
    36  H    3.106541   2.538400   2.095015   2.695243   2.842589
                   36
    36  H    0.000000
 Stoichiometry    C12H24
 Framework group  C1[X(C12H24)]
 Deg. of freedom   102
 Full point group                 C1      NOp   1
 Largest Abelian subgroup         C1      NOp   1
 Largest concise Abelian subgroup C1      NOp   1
                         Standard orientation:                         
 ---------------------------------------------------------------------
 Center     Atomic      Atomic             Coordinates (Angstroms)
 Number     Number       Type             X           Y           Z
 ---------------------------------------------------------------------
      1          6           0        6.772922   -0.425834   -0.064667
      2          6           0        5.523175    0.436537   -0.141958
      3          1           0        7.668409    0.193858   -0.174184
      4          1           0        6.780629   -1.177596   -0.860369
      5          1           0        6.833562   -0.943389    0.898030
      6          6           0        4.254061   -0.401850    0.008532
      7          1           0        5.509369    0.964220   -1.102718
      8          1           0        5.562317    1.197753    0.645897
      9          6           0        2.999176    0.469042   -0.071432
     10          1           0        4.274411   -0.929863    0.969713
     11          1           0        4.222412   -1.165034   -0.778633
     12          6           0        1.729184   -0.369834    0.080393
     13          1           0        2.978586    0.996079   -1.033108
     14          1           0        3.031164    1.232666    0.715251
     15          6           0        0.474133    0.500573   -0.002399
     16          1           0        1.749030   -0.895338    1.042913
     17          1           0        1.698053   -1.134715   -0.705088
     18          6           0       -0.795658   -0.338281    0.151129
     19          1           0        0.453810    1.025022   -0.965484
     20          1           0        0.505577    1.266292    0.782252
     21          6           0       -2.050960    0.531502    0.065270
     22          1           0       -0.776094   -0.861061    1.115136
     23          1           0       -0.826156   -1.105380   -0.632211
     24          6           0       -3.321074   -0.307421    0.220524
     25          1           0       -2.070843    1.053148   -0.899345
     26          1           0       -2.020210    1.299369    0.847847
     27          6           0       -4.575845    0.563572    0.132605
     28          1           0       -3.298076   -0.830429    1.185060
     29          1           0       -3.349263   -1.077433   -0.560924
     30          6           0       -5.822267   -0.257346    0.299278
     31          1           0       -4.588773    1.096388   -0.826108
     32          1           0       -4.555179    1.326231    0.920252
     33          6           0       -6.768902   -0.383883   -0.639070
     34          1           0       -6.874168   -1.291116   -1.225811
     35          1           0       -7.463346    0.426198   -0.839777
     36          1           0       -5.952904   -0.766534    1.252176
 ---------------------------------------------------------------------
 Rotational constants (GHZ):      6.3437716      0.1582077      0.1569794
 Standard basis: def2SVP (5D, 7F)
 There are   300 symmetry adapted cartesian basis functions of A   symmetry.
 There are   288 symmetry adapted basis functions of A   symmetry.
   288 basis functions,   468 primitive gaussians,   300 cartesian basis functions
    48 alpha electrons       48 beta electrons
       nuclear repulsion energy       654.6498518052 Hartrees.
 NAtoms=   36 NActive=   36 NUniq=   36 SFac= 1.00D+00 NAtFMM=   60 NAOKFM=F Big=F
 Integral buffers will be    131072 words long.
 Raffenetti 2 integral format.
 Two-electron integral symmetry is turned on.
 One-electron integrals computed using PRISM.
   1 Symmetry operations used in ECPInt.
 ECPInt:  NShTT=   10440 NPrTT=   35208 LenC2=    8756 LenP2D=   21878.
 LDataN:  DoStor=T MaxTD1= 4 Len=   56
 NBasis=   288 RedAO= T EigKep=  7.65D-04  NBF=   288
 NBsUse=   288 1.00D-06 EigRej= -1.00D+00 NBFU=   288
 ExpMin= 1.22D-01 ExpMax= 1.24D+03 ExpMxC= 1.86D+02 IAcc=3 IRadAn=         7 AccDes= 0.00D+00
 Harris functional with IExCor= 1009 and IRadAn=       7 diagonalized for initial guess.
 HarFok:  IExCor= 1009 AccDes= 0.00D+00 IRadAn=         7 IDoV= 1 UseB2=F ITyADJ=14
 ICtDFT=  3500011 ScaDFX=  1.000000  1.000000  1.000000  1.000000
 FoFCou: FMM=F IPFlag=           0 FMFlag=      100000 FMFlg1=           0
         NFxFlg=           0 DoJE=T BraDBF=F KetDBF=T FulRan=T
         wScrn=  0.000000 ICntrl=     500 IOpCl=  0 I1Cent=   200000004 NGrid=           0
         NMat0=    1 NMatS0=      1 NMatT0=    0 NMatD0=    1 NMtDS0=    0 NMtDT0=    0
 Petite list used in FoFCou.
 Keep R1 ints in memory in canonical form, NReq=879895090.
 Requested convergence on RMS density matrix=1.00D-08 within 128 cycles.
 Requested convergence on MAX density matrix=1.00D-06.
 Requested convergence on             energy=1.00D-06.
 No special actions if energy rises.
 Integral accuracy reduced to 1.0D-05 until final iterations.
 Initial convergence to 1.0D-05 achieved.  Increase integral accuracy.
 SCF Done:  E(RM06) =  -470.868034501     A.U. after   14 cycles
            NFock= 14  Conv=0.64D-08     -V/T= 2.0123

 **********************************************************************

            Population analysis using the SCF density.

 **********************************************************************

 Orbital symmetries:
       Occupied  (A) (A) (A) (A) (A) (A) (A) (A) (A) (A) (A) (A)
                 (A) (A) (A) (A) (A) (A) (A) (A) (A) (A) (A) (A)
                 (A) (A) (A) (A) (A) (A) (A) (A) (A) (A) (A) (A)
                 (A) (A) (A) (A) (A) (A) (A) (A) (A) (A) (A) (A)
       Virtual   (A) (A) (A) (A) (A) (A) (A) (A) (A) (A) (A) (A)
                 (A) (A) (A) (A) (A) (A) (A) (A) (A) (A) (A) (A)
                 (A) (A) (A) (A) (A) (A) (A) (A) (A) (A) (A) (A)
                 (A) (A) (A) (A) (A) (A) (A) (A) (A) (A) (A) (A)
                 (A) (A) (A) (A) (A) (A) (A) (A) (A) (A) (A) (A)
                 (A) (A) (A) (A) (A) (A) (A) (A) (A) (A) (A) (A)
                 (A) (A) (A) (A) (A) (A) (A) (A) (A) (A) (A) (A)
                 (A) (A) (A) (A) (A) (A) (A) (A) (A) (A) (A) (A)
                 (A) (A) (A) (A) (A) (A) (A) (A) (A) (A) (A) (A)
                 (A) (A) (A) (A) (A) (A) (A) (A) (A) (A) (A) (A)
                 (A) (A) (A) (A) (A) (A) (A) (A) (A) (A) (A) (A)
                 (A) (A) (A) (A) (A) (A) (A) (A) (A) (A) (A) (A)
                 (A) (A) (A) (A) (A) (A) (A) (A) (A) (A) (A) (A)
                 (A) (A) (A) (A) (A) (A) (A) (A) (A) (A) (A) (A)
                 (A) (A) (A) (A) (A) (A) (A) (A) (A) (A) (A) (A)
                 (A) (A) (A) (A) (A) (A) (A) (A) (A) (A) (A) (A)
                 (A) (A) (A) (A) (A) (A) (A) (A) (A) (A) (A) (A)
                 (A) (A) (A) (A) (A) (A) (A) (A) (A) (A) (A) (A)
                 (A) (A) (A) (A) (A) (A) (A) (A) (A) (A) (A) (A)
                 (A) (A) (A) (A) (A) (A) (A) (A) (A) (A) (A) (A)
 The electronic state is 1-A.
 Alpha  occ. eigenvalues --  -10.25392 -10.24804 -10.24619 -10.24272 -10.24040
 Alpha  occ. eigenvalues --  -10.23892 -10.23796 -10.23795 -10.23733 -10.23704
 Alpha  occ. eigenvalues --  -10.23245 -10.23011  -0.82440  -0.81193  -0.79194
 Alpha  occ. eigenvalues --   -0.76515  -0.73232  -0.69359  -0.65016  -0.60736
 Alpha  occ. eigenvalues --   -0.58587  -0.57824  -0.57594  -0.55168  -0.49878
 Alpha  occ. eigenvalues --   -0.48570  -0.46629  -0.44964  -0.44704  -0.44027
 Alpha  occ. eigenvalues --   -0.43246  -0.42792  -0.41644  -0.40342  -0.39677
 Alpha  occ. eigenvalues --   -0.38944  -0.37534  -0.36370  -0.35491  -0.34973
 Alpha  occ. eigenvalues --   -0.34419  -0.34248  -0.33700  -0.33531  -0.33203
 Alpha  occ. eigenvalues --   -0.33000  -0.30531  -0.18619
 Alpha virt. eigenvalues --   -0.05770   0.06227   0.06998   0.07909   0.08209
 Alpha virt. eigenvalues --    0.08691   0.09348   0.09822   0.10201   0.11157
 Alpha virt. eigenvalues --    0.11530   0.12625   0.13238   0.14387   0.14543
 Alpha virt. eigenvalues --    0.15357   0.15729   0.16127   0.16145   0.16763
 Alpha virt. eigenvalues --    0.17122   0.18191   0.18346   0.19418   0.19617
 Alpha virt. eigenvalues --    0.20341   0.20638   0.22541   0.23044   0.23451
 Alpha virt. eigenvalues --    0.25839   0.26499   0.28079   0.32089   0.33143
 Alpha virt. eigenvalues --    0.34661   0.38485   0.40526   0.41404   0.42295
 Alpha virt. eigenvalues --    0.42612   0.43255   0.43687   0.43866   0.44714
 Alpha virt. eigenvalues --    0.47076   0.48687   0.49107   0.50522   0.50948
 Alpha virt. eigenvalues --    0.51948   0.52277   0.54560   0.55178   0.56208
 Alpha virt. eigenvalues --    0.58473   0.60793   0.61100   0.61894   0.61925
 Alpha virt. eigenvalues --    0.62229   0.62545   0.62688   0.62927   0.63195
 Alpha virt. eigenvalues --    0.63789   0.64113   0.64553   0.64674   0.65492
 Alpha virt. eigenvalues --    0.66027   0.66142   0.66195   0.66577   0.66944
 Alpha virt. eigenvalues --    0.67004   0.67154   0.68008   0.68709   0.68821
 Alpha virt. eigenvalues --    0.69274   0.69893   0.70191   0.70787   0.71385
 Alpha virt. eigenvalues --    0.71566   0.71804   0.72009   0.72541   0.72950
 Alpha virt. eigenvalues --    0.74439   0.78670   0.82112   0.86374   0.87684
 Alpha virt. eigenvalues --    0.91344   0.94500   0.98297   0.98930   1.00503
 Alpha virt. eigenvalues --    1.01324   1.01866   1.02358   1.02891   1.03979
 Alpha virt. eigenvalues --    1.05444   1.07997   1.09294   1.17898   1.20188
 Alpha virt. eigenvalues --    1.20685   1.23309   1.26842   1.31388   1.31707
 Alpha virt. eigenvalues --    1.32742   1.33521   1.34584   1.35755   1.36100
 Alpha virt. eigenvalues --    1.37108   1.37663   1.37894   1.41574   1.46617
 Alpha virt. eigenvalues --    1.52476   1.52609   1.56002   1.58303   1.61205
 Alpha virt. eigenvalues --    1.65309   1.65820   1.66343   1.66582   1.69610
 Alpha virt. eigenvalues --    1.71254   1.71628   1.73030   1.73948   1.73991
 Alpha virt. eigenvalues --    1.74649   1.75099   1.76398   1.76630   1.77583
 Alpha virt. eigenvalues --    1.78085   1.78958   1.79378   1.79742   1.80136
 Alpha virt. eigenvalues --    1.80311   1.81119   1.81190   1.82038   1.82422
 Alpha virt. eigenvalues --    1.83443   1.84003   1.84472   1.85551   1.86369
 Alpha virt. eigenvalues --    1.87292   1.88874   1.89539   1.90600   1.91185
 Alpha virt. eigenvalues --    1.91603   1.92101   1.92604   1.92942   1.94318
 Alpha virt. eigenvalues --    1.96290   1.98703   1.99252   2.00466   2.03926
 Alpha virt. eigenvalues --    2.05987   2.06926   2.09556   2.10230   2.11477
 Alpha virt. eigenvalues --    2.14006   2.15500   2.18261   2.20872   2.23803
 Alpha virt. eigenvalues --    2.27846   2.30567   2.31309   2.34949   2.36696
 Alpha virt. eigenvalues --    2.37427   2.39776   2.40628   2.41317   2.41675
 Alpha virt. eigenvalues --    2.42241   2.43251   2.44520   2.46236   2.46665
 Alpha virt. eigenvalues --    2.49102   2.50773   2.51246   2.52342   2.55679
 Alpha virt. eigenvalues --    2.56564   2.57073   2.57412   2.59086   2.59628
 Alpha virt. eigenvalues --    2.60392   2.61512   2.62785   2.65159   2.69995
 Alpha virt. eigenvalues --    2.74691   2.76259   2.78862   2.82103   2.82837
 Alpha virt. eigenvalues --    2.83983   2.84657   2.85957   2.87415   2.89398
 Alpha virt. eigenvalues --    2.91309   2.91779   2.92669   2.94248   2.96040
 Alpha virt. eigenvalues --    2.96644   2.97428   2.99519   3.00112   3.00796
 Alpha virt. eigenvalues --    3.03070   3.04094   3.04837   3.06748   3.07326
          Condensed to atoms (all electrons):
               1          2          3          4          5          6
     1  C    4.571107   0.421902   0.378040   0.394110   0.394067  -0.058856
     2  C    0.421902   4.673687  -0.014023  -0.023350  -0.023346   0.398710
     3  H    0.378040  -0.014023   0.656170  -0.024812  -0.024817   0.008287
     4  H    0.394110  -0.023350  -0.024812   0.653048  -0.027902  -0.008677
     5  H    0.394067  -0.023346  -0.024817  -0.027902   0.653153  -0.008676
     6  C   -0.058856   0.398710   0.008287  -0.008677  -0.008676   4.751759
     7  H   -0.023813   0.375306  -0.006691  -0.010173   0.008799  -0.022838
     8  H   -0.023783   0.375231  -0.006703   0.008798  -0.010162  -0.022779
     9  C    0.009394  -0.046189  -0.000555   0.000468   0.000470   0.364426
    10  H   -0.004386  -0.027263  -0.000047  -0.001940   0.007551   0.374728
    11  H   -0.004368  -0.027321  -0.000045   0.007553  -0.001947   0.374860
    12  C   -0.000510   0.008371   0.000016  -0.000008  -0.000008  -0.043111
    13  H    0.000293  -0.006623   0.000008  -0.000053   0.000024  -0.022286
    14  H    0.000298  -0.006613   0.000008   0.000024  -0.000053  -0.022264
    15  C    0.000009  -0.000440   0.000000   0.000000   0.000000   0.008166
    16  H    0.000007   0.000317   0.000000   0.000004  -0.000010  -0.007022
    17  H    0.000007   0.000324   0.000000  -0.000010   0.000004  -0.007000
    18  C    0.000000   0.000008   0.000000   0.000000   0.000000  -0.000459
    19  H    0.000000   0.000003   0.000000   0.000000   0.000000   0.000374
    20  H    0.000000   0.000003   0.000000   0.000000   0.000000   0.000383
    21  C    0.000000   0.000000   0.000000   0.000000   0.000000   0.000008
    22  H    0.000000   0.000000   0.000000   0.000000   0.000000   0.000003
    23  H    0.000000   0.000000   0.000000   0.000000   0.000000   0.000003
    24  C    0.000000   0.000000   0.000000   0.000000   0.000000   0.000000
    25  H    0.000000   0.000000   0.000000   0.000000   0.000000   0.000000
    26  H    0.000000   0.000000   0.000000   0.000000   0.000000   0.000000
    27  C    0.000000   0.000000   0.000000   0.000000   0.000000   0.000000
    28  H    0.000000   0.000000   0.000000   0.000000   0.000000   0.000000
    29  H    0.000000   0.000000   0.000000   0.000000   0.000000   0.000000
    30  C    0.000000   0.000000   0.000000   0.000000   0.000000   0.000000
    31  H    0.000000   0.000000   0.000000   0.000000   0.000000   0.000000
    32  H    0.000000   0.000000   0.000000   0.000000   0.000000   0.000000
    33  C    0.000000   0.000000   0.000000   0.000000   0.000000   0.000000
    34  H    0.000000   0.000000   0.000000   0.000000   0.000000   0.000000
    35  H    0.000000   0.000000   0.000000   0.000000   0.000000   0.000000
    36  H    0.000000   0.000000   0.000000   0.000000   0.000000   0.000000
               7          8          9         10         11         12
     1  C   -0.023813  -0.023783   0.009394  -0.004386  -0.004368  -0.000510
     2  C    0.375306   0.375231  -0.046189  -0.027263  -0.027321   0.008371
     3  H   -0.006691  -0.006703  -0.000555  -0.000047  -0.000045   0.000016
     4  H   -0.010173   0.008798   0.000468  -0.001940   0.007553  -0.000008
     5  H    0.008799  -0.010162   0.000470   0.007551  -0.001947  -0.000008
     6  C   -0.022838  -0.022779   0.364426   0.374728   0.374860  -0.043111
     7  H    0.690801  -0.034860  -0.007361   0.009498  -0.011831   0.000362
     8  H   -0.034860   0.690893  -0.007377  -0.011872   0.009497   0.000358
     9  C   -0.007361  -0.007377   4.749197  -0.020974  -0.020987   0.364499
    10  H    0.009498  -0.011872  -0.020974   0.696081  -0.037137  -0.007328
    11  H   -0.011831   0.009497  -0.020987  -0.037137   0.695894  -0.007347
    12  C    0.000362   0.000358   0.364499  -0.007328  -0.007347   4.746616
    13  H    0.007897  -0.002029   0.372377   0.009432  -0.011943  -0.021288
    14  H   -0.002038   0.007896   0.372245  -0.011920   0.009433  -0.021208
    15  C    0.000004   0.000004  -0.044243   0.000437   0.000431   0.367554
    16  H    0.000015  -0.000040  -0.021545   0.007728  -0.002008   0.371828
    17  H   -0.000040   0.000015  -0.021628  -0.002019   0.007735   0.372048
    18  C    0.000000   0.000000   0.008400   0.000001   0.000001  -0.045560
    19  H   -0.000012   0.000005  -0.007070   0.000014  -0.000040  -0.021211
    20  H    0.000005  -0.000012  -0.007061  -0.000040   0.000014  -0.021155
    21  C    0.000000   0.000000  -0.000458   0.000000   0.000000   0.008421
    22  H    0.000000   0.000000   0.000384  -0.000012   0.000005  -0.007106
    23  H    0.000000   0.000000   0.000390   0.000005  -0.000012  -0.007069
    24  C    0.000000   0.000000   0.000008   0.000000   0.000000  -0.000447
    25  H    0.000000   0.000000   0.000002   0.000000   0.000000   0.000387
    26  H    0.000000   0.000000   0.000002   0.000000   0.000000   0.000385
    27  C    0.000000   0.000000   0.000000   0.000000   0.000000   0.000007
    28  H    0.000000   0.000000   0.000000   0.000000   0.000000   0.000000
    29  H    0.000000   0.000000   0.000000   0.000000   0.000000  -0.000003
    30  C    0.000000   0.000000   0.000000   0.000000   0.000000   0.000000
    31  H    0.000000   0.000000   0.000000   0.000000   0.000000   0.000000
    32  H    0.000000   0.000000   0.000000   0.000000   0.000000   0.000000
    33  C    0.000000   0.000000   0.000000   0.000000   0.000000   0.000000
    34  H    0.000000   0.000000   0.000000   0.000000   0.000000   0.000000
    35  H    0.000000   0.000000   0.000000   0.000000   0.000000   0.000000
    36  H    0.000000   0.000000   0.000000   0.000000   0.000000   0.000000
              13         14         15         16         17         18
     1  C    0.000293   0.000298   0.000009   0.000007   0.000007   0.000000
     2  C   -0.006623  -0.006613  -0.000440   0.000317   0.000324   0.000008
     3  H    0.000008   0.000008   0.000000   0.000000   0.000000   0.000000
     4  H   -0.000053   0.000024   0.000000   0.000004  -0.000010   0.000000
     5  H    0.000024  -0.000053   0.000000  -0.000010   0.000004   0.000000
     6  C   -0.022286  -0.022264   0.008166  -0.007022  -0.007000  -0.000459
     7  H    0.007897  -0.002038   0.000004   0.000015  -0.000040   0.000000
     8  H   -0.002029   0.007896   0.000004  -0.000040   0.000015   0.000000
     9  C    0.372377   0.372245  -0.044243  -0.021545  -0.021628   0.008400
    10  H    0.009432  -0.011920   0.000437   0.007728  -0.002019   0.000001
    11  H   -0.011943   0.009433   0.000431  -0.002008   0.007735   0.000001
    12  C   -0.021288  -0.021208   0.367554   0.371828   0.372048  -0.045560
    13  H    0.695503  -0.036280  -0.007228   0.009364  -0.011845   0.000402
    14  H   -0.036280   0.695707  -0.007251  -0.011913   0.009362   0.000395
    15  C   -0.007228  -0.007251   4.740875  -0.021137  -0.021193   0.369890
    16  H    0.009364  -0.011913  -0.021137   0.695479  -0.036132  -0.007238
    17  H   -0.011845   0.009362  -0.021193  -0.036132   0.695103  -0.007235
    18  C    0.000402   0.000395   0.369890  -0.007238  -0.007235   4.739497
    19  H    0.007769  -0.001990   0.372131   0.009342  -0.011891  -0.021469
    20  H   -0.002003   0.007763   0.371833  -0.011871   0.009343  -0.021573
    21  C    0.000003   0.000003  -0.044777   0.000398   0.000393   0.371751
    22  H    0.000014  -0.000040  -0.020853   0.007765  -0.001989   0.372230
    23  H   -0.000040   0.000014  -0.020735  -0.002005   0.007758   0.371333
    24  C    0.000000   0.000000   0.008165   0.000003   0.000002  -0.046188
    25  H   -0.000012   0.000005  -0.007221   0.000014  -0.000040  -0.020289
    26  H    0.000005  -0.000012  -0.006972  -0.000039   0.000014  -0.021392
    27  C    0.000000   0.000000  -0.000431   0.000000   0.000000   0.008210
    28  H    0.000000   0.000000   0.000453  -0.000012   0.000005  -0.006982
    29  H    0.000000   0.000000   0.000426   0.000006  -0.000012  -0.006664
    30  C    0.000000   0.000000   0.000007   0.000000   0.000000  -0.000339
    31  H    0.000000   0.000000   0.000016   0.000000   0.000000   0.000325
    32  H    0.000000   0.000000  -0.000006   0.000000   0.000000   0.000615
    33  C    0.000000   0.000000   0.000000   0.000000   0.000000   0.000006
    34  H    0.000000   0.000000   0.000000   0.000000   0.000000  -0.000002
    35  H    0.000000   0.000000   0.000000   0.000000   0.000000   0.000000
    36  H    0.000000   0.000000   0.000001   0.000000   0.000000  -0.000006
              19         20         21         22         23         24
     1  C    0.000000   0.000000   0.000000   0.000000   0.000000   0.000000
     2  C    0.000003   0.000003   0.000000   0.000000   0.000000   0.000000
     3  H    0.000000   0.000000   0.000000   0.000000   0.000000   0.000000
     4  H    0.000000   0.000000   0.000000   0.000000   0.000000   0.000000
     5  H    0.000000   0.000000   0.000000   0.000000   0.000000   0.000000
     6  C    0.000374   0.000383   0.000008   0.000003   0.000003   0.000000
     7  H   -0.000012   0.000005   0.000000   0.000000   0.000000   0.000000
     8  H    0.000005  -0.000012   0.000000   0.000000   0.000000   0.000000
     9  C   -0.007070  -0.007061  -0.000458   0.000384   0.000390   0.000008
    10  H    0.000014  -0.000040   0.000000  -0.000012   0.000005   0.000000
    11  H   -0.000040   0.000014   0.000000   0.000005  -0.000012   0.000000
    12  C   -0.021211  -0.021155   0.008421  -0.007106  -0.007069  -0.000447
    13  H    0.007769  -0.002003   0.000003   0.000014  -0.000040   0.000000
    14  H   -0.001990   0.007763   0.000003  -0.000040   0.000014   0.000000
    15  C    0.372131   0.371833  -0.044777  -0.020853  -0.020735   0.008165
    16  H    0.009342  -0.011871   0.000398   0.007765  -0.002005   0.000003
    17  H   -0.011891   0.009343   0.000393  -0.001989   0.007758   0.000002
    18  C   -0.021469  -0.021573   0.371751   0.372230   0.371333  -0.046188
    19  H    0.694298  -0.036033  -0.007215   0.009316  -0.011839   0.000394
    20  H   -0.036033   0.694849  -0.007093  -0.011870   0.009339   0.000399
    21  C   -0.007215  -0.007093   4.734461  -0.022229  -0.021588   0.370972
    22  H    0.009316  -0.011870  -0.022229   0.693370  -0.035803  -0.006658
    23  H   -0.011839   0.009339  -0.021588  -0.035803   0.693261  -0.006363
    24  C    0.000394   0.000399   0.370972  -0.006658  -0.006363   4.764315
    25  H    0.007725  -0.001974   0.370758   0.009283  -0.011762  -0.019941
    26  H   -0.001981   0.007691   0.373429  -0.011769   0.009232  -0.023908
    27  C    0.000002   0.000003  -0.048127   0.000308   0.000406   0.429577
    28  H    0.000012  -0.000044  -0.018721   0.007614  -0.002052   0.370178
    29  H   -0.000031   0.000005  -0.018698  -0.002104   0.006969   0.358145
    30  C    0.000000   0.000000   0.008678  -0.000002  -0.000025  -0.061633
    31  H   -0.000012   0.000004  -0.003399   0.000011  -0.000055  -0.033132
    32  H    0.000006  -0.000017  -0.009585  -0.000068  -0.000013  -0.023783
    33  C    0.000000   0.000000   0.000218   0.000000  -0.000008  -0.007879
    34  H    0.000000   0.000000  -0.000029   0.000000   0.000001   0.000405
    35  H    0.000000   0.000000   0.000031   0.000000   0.000000  -0.000331
    36  H    0.000000   0.000000   0.000813  -0.000010  -0.000002  -0.012850
              25         26         27         28         29         30
     1  C    0.000000   0.000000   0.000000   0.000000   0.000000   0.000000
     2  C    0.000000   0.000000   0.000000   0.000000   0.000000   0.000000
     3  H    0.000000   0.000000   0.000000   0.000000   0.000000   0.000000
     4  H    0.000000   0.000000   0.000000   0.000000   0.000000   0.000000
     5  H    0.000000   0.000000   0.000000   0.000000   0.000000   0.000000
     6  C    0.000000   0.000000   0.000000   0.000000   0.000000   0.000000
     7  H    0.000000   0.000000   0.000000   0.000000   0.000000   0.000000
     8  H    0.000000   0.000000   0.000000   0.000000   0.000000   0.000000
     9  C    0.000002   0.000002   0.000000   0.000000   0.000000   0.000000
    10  H    0.000000   0.000000   0.000000   0.000000   0.000000   0.000000
    11  H    0.000000   0.000000   0.000000   0.000000   0.000000   0.000000
    12  C    0.000387   0.000385   0.000007   0.000000  -0.000003   0.000000
    13  H   -0.000012   0.000005   0.000000   0.000000   0.000000   0.000000
    14  H    0.000005  -0.000012   0.000000   0.000000   0.000000   0.000000
    15  C   -0.007221  -0.006972  -0.000431   0.000453   0.000426   0.000007
    16  H    0.000014  -0.000039   0.000000  -0.000012   0.000006   0.000000
    17  H   -0.000040   0.000014   0.000000   0.000005  -0.000012   0.000000
    18  C   -0.020289  -0.021392   0.008210  -0.006982  -0.006664  -0.000339
    19  H    0.007725  -0.001981   0.000002   0.000012  -0.000031   0.000000
    20  H   -0.001974   0.007691   0.000003  -0.000044   0.000005   0.000000
    21  C    0.370758   0.373429  -0.048127  -0.018721  -0.018698   0.008678
    22  H    0.009283  -0.011769   0.000308   0.007614  -0.002104  -0.000002
    23  H   -0.011762   0.009232   0.000406  -0.002052   0.006969  -0.000025
    24  C   -0.019941  -0.023908   0.429577   0.370178   0.358145  -0.061633
    25  H    0.690079  -0.035716  -0.006635   0.009154  -0.012245   0.000132
    26  H   -0.035716   0.690166  -0.005895  -0.011808   0.009453   0.000514
    27  C   -0.006635  -0.005895   4.760732  -0.027963  -0.041064   0.366265
    28  H    0.009154  -0.011808  -0.027963   0.686016  -0.034749  -0.003611
    29  H   -0.012245   0.009453  -0.041064  -0.034749   0.694900   0.013372
    30  C    0.000132   0.000514   0.366265  -0.003611   0.013372   4.936234
    31  H    0.007241  -0.001897   0.367733   0.009320  -0.009210  -0.025657
    32  H   -0.002312   0.008897   0.314785  -0.010207   0.011799  -0.023084
    33  C    0.000004  -0.000002  -0.091814   0.000209   0.004128   0.582715
    34  H    0.000007  -0.000002   0.013587  -0.000025  -0.001091  -0.033280
    35  H   -0.000009   0.000003  -0.016861   0.000022   0.000289  -0.045001
    36  H    0.000000  -0.000004  -0.064633   0.007219   0.000753   0.393704
              31         32         33         34         35         36
     1  C    0.000000   0.000000   0.000000   0.000000   0.000000   0.000000
     2  C    0.000000   0.000000   0.000000   0.000000   0.000000   0.000000
     3  H    0.000000   0.000000   0.000000   0.000000   0.000000   0.000000
     4  H    0.000000   0.000000   0.000000   0.000000   0.000000   0.000000
     5  H    0.000000   0.000000   0.000000   0.000000   0.000000   0.000000
     6  C    0.000000   0.000000   0.000000   0.000000   0.000000   0.000000
     7  H    0.000000   0.000000   0.000000   0.000000   0.000000   0.000000
     8  H    0.000000   0.000000   0.000000   0.000000   0.000000   0.000000
     9  C    0.000000   0.000000   0.000000   0.000000   0.000000   0.000000
    10  H    0.000000   0.000000   0.000000   0.000000   0.000000   0.000000
    11  H    0.000000   0.000000   0.000000   0.000000   0.000000   0.000000
    12  C    0.000000   0.000000   0.000000   0.000000   0.000000   0.000000
    13  H    0.000000   0.000000   0.000000   0.000000   0.000000   0.000000
    14  H    0.000000   0.000000   0.000000   0.000000   0.000000   0.000000
    15  C    0.000016  -0.000006   0.000000   0.000000   0.000000   0.000001
    16  H    0.000000   0.000000   0.000000   0.000000   0.000000   0.000000
    17  H    0.000000   0.000000   0.000000   0.000000   0.000000   0.000000
    18  C    0.000325   0.000615   0.000006  -0.000002   0.000000  -0.000006
    19  H   -0.000012   0.000006   0.000000   0.000000   0.000000   0.000000
    20  H    0.000004  -0.000017   0.000000   0.000000   0.000000   0.000000
    21  C   -0.003399  -0.009585   0.000218  -0.000029   0.000031   0.000813
    22  H    0.000011  -0.000068   0.000000   0.000000   0.000000  -0.000010
    23  H   -0.000055  -0.000013  -0.000008   0.000001   0.000000  -0.000002
    24  C   -0.033132  -0.023783  -0.007879   0.000405  -0.000331  -0.012850
    25  H    0.007241  -0.002312   0.000004   0.000007  -0.000009   0.000000
    26  H   -0.001897   0.008897  -0.000002  -0.000002   0.000003  -0.000004
    27  C    0.367733   0.314785  -0.091814   0.013587  -0.016861  -0.064633
    28  H    0.009320  -0.010207   0.000209  -0.000025   0.000022   0.007219
    29  H   -0.009210   0.011799   0.004128  -0.001091   0.000289   0.000753
    30  C   -0.025657  -0.023084   0.582715  -0.033280  -0.045001   0.393704
    31  H    0.678678  -0.024155   0.000927  -0.000912   0.003774   0.009376
    32  H   -0.024155   0.719979   0.011331  -0.000894   0.002062   0.002980
    33  C    0.000927   0.011331   4.942296   0.382375   0.393609  -0.055802
    34  H   -0.000912  -0.000894   0.382375   0.633542  -0.050508  -0.009815
    35  H    0.003774   0.002062   0.393609  -0.050508   0.636571   0.011328
    36  H    0.009376   0.002980  -0.055802  -0.009815   0.011328   0.668508
 Mulliken charges:
               1
     1  C   -0.053517
     2  C   -0.078695
     3  H    0.035164
     4  H    0.032922
     5  H    0.032854
     6  C   -0.057742
     7  H    0.026969
     8  H    0.026922
     9  C   -0.036814
    10  H    0.019463
    11  H    0.019564
    12  C   -0.037490
    13  H    0.018539
    14  H    0.018430
    15  C   -0.037914
    16  H    0.018702
    17  H    0.018922
    18  C   -0.037671
    19  H    0.019403
    20  H    0.019115
    21  C   -0.038416
    22  H    0.020210
    23  H    0.020660
    24  C   -0.059449
    25  H    0.023364
    26  H    0.021604
    27  C    0.041808
    28  H    0.025969
    29  H    0.025627
    30  C   -0.108989
    31  H    0.021025
    32  H    0.021669
    33  C   -0.162313
    34  H    0.066642
    35  H    0.065023
    36  H    0.048441
 Sum of Mulliken charges =   0.00000
 Mulliken charges with hydrogens summed into heavy atoms:
               1
     1  C    0.047424
     2  C   -0.024805
     6  C   -0.018715
     9  C    0.000156
    12  C    0.000134
    15  C    0.000604
    18  C    0.003199
    21  C    0.006552
    24  C   -0.007853
    27  C    0.084502
    30  C   -0.060548
    33  C   -0.030648
 Electronic spatial extent (au):  <R**2>=           6923.4446
 Charge=              0.0000 electrons
 Dipole moment (field-independent basis, Debye):
    X=              0.7975    Y=              0.1914    Z=              0.2731  Tot=              0.8644
 Quadrupole moment (field-independent basis, Debye-Ang):
   XX=            -88.3868   YY=            -81.0805   ZZ=            -78.6485
   XY=             -0.9141   XZ=             -1.4234   YZ=              0.5129
 Traceless Quadrupole moment (field-independent basis, Debye-Ang):
   XX=             -5.6816   YY=              1.6248   ZZ=              4.0568
   XY=             -0.9141   XZ=             -1.4234   YZ=              0.5129
 Octapole moment (field-independent basis, Debye-Ang**2):
  XXX=             53.3997  YYY=              0.2881  ZZZ=              1.9012  XYY=              2.3664
  XXY=             14.6971  XXZ=              6.3332  XZZ=              2.2370  YZZ=             -1.2032
  YYZ=             -0.8371  XYZ=             -1.4936
 Hexadecapole moment (field-independent basis, Debye-Ang**3):
 XXXX=          -9764.2170 YYYY=           -281.3230 ZZZZ=           -190.6431 XXXY=            -61.5433
 XXXZ=            -24.3297 YYYX=             -2.2431 YYYZ=              3.9832 ZZZX=            -10.9613
 ZZZY=              0.1415 XXYY=          -1603.1066 XXZZ=          -1549.8068 YYZZ=            -72.8274
 XXYZ=             13.6310 YYXZ=              4.2862 ZZXY=              5.8379
 N-N= 6.546498518052D+02 E-N=-2.395478033180D+03  KE= 4.651555492941D+02
   1 Symmetry operations used in ECPInt.
 ECPInt:  NShTT=   10440 NPrTT=   35208 LenC2=    8756 LenP2D=   21878.
 LDataN:  DoStor=T MaxTD1= 5 Len=  102
 Calling FoFJK, ICntrl=      2127 FMM=F ISym2X=0 I1Cent= 0 IOpClX= 0 NMat=1 NMatS=1 NMatT=0.
 ***** Axes restored to original set *****
 -------------------------------------------------------------------
 Center     Atomic                   Forces (Hartrees/Bohr)
 Number     Number              X              Y              Z
 -------------------------------------------------------------------
      1        6           0.005885360    0.000007082    0.008757115
      2        6          -0.015526727   -0.000015924   -0.013104132
      3        1           0.003356390   -0.000001200   -0.004675875
      4        1          -0.002694910    0.003582359   -0.002779288
      5        1          -0.002696924   -0.003589968   -0.002780031
      6        6           0.021419522    0.000037431    0.014414121
      7        1           0.003034872    0.003844540    0.004287369
      8        1           0.003047364   -0.003838844    0.004284494
      9        6          -0.021448810   -0.000059651   -0.014530428
     10        1          -0.003899553   -0.004381562   -0.002726256
     11        1          -0.003904668    0.004366372   -0.002734406
     12        6           0.021318696    0.000095832    0.014569725
     13        1           0.003869954    0.004293063    0.002623714
     14        1           0.003899049   -0.004272313    0.002625742
     15        6          -0.021233081   -0.000129090   -0.014057265
     16        1          -0.003894626   -0.004310411   -0.002619654
     17        1          -0.003907395    0.004270519   -0.002641222
     18        6           0.019667938    0.000335297    0.014551659
     19        1           0.003856750    0.004289309    0.002623123
     20        1           0.003913648   -0.004247738    0.002640963
     21        6          -0.019179432   -0.000139278   -0.010931306
     22        1          -0.003836015   -0.004284176   -0.002653060
     23        1          -0.003861771    0.004197086   -0.002717412
     24        6           0.010903763   -0.000187232    0.009571899
     25        1           0.003882151    0.004170321    0.002572411
     26        1           0.003831835   -0.004033725    0.002690764
     27        6           0.001572495   -0.023886741    0.030929706
     28        1          -0.003634314   -0.003554558   -0.001972905
     29        1          -0.004062443    0.003770879   -0.001825125
     30        6           0.024074781   -0.014138362   -0.021215055
     31        1           0.000713949    0.004147067    0.002314491
     32        1           0.012736085   -0.008134825   -0.004607328
     33        6          -0.013070272    0.022396092    0.017797472
     34        1          -0.041287292   -0.017916494    0.012049826
     35        1           0.034199550    0.032203480    0.000101309
     36        1          -0.017045920    0.005115363   -0.040835154
 -------------------------------------------------------------------
 Cartesian Forces:  Max     0.041287292 RMS     0.012009683
 -----------------------------------------------------------------------------------------------
                       Internal Coordinate Forces (Hartree/Bohr or radian)
  Cent   Atom   N1       Length/X         N2         Alpha/Y        N3         Beta/Z          J
 -----------------------------------------------------------------------------------------------
      1  C 
      2  C        1   0.001478(     1)
      3  H        1   0.004768(     2)      2   0.006669(    36)
      4  H        1   0.005148(     3)      2   0.002071(    37)      3  -0.001087(    70)     0
      5  H        1   0.005155(     4)      2   0.002066(    38)      3   0.001083(    71)     0
      6  C        2  -0.003003(     5)      1   0.010383(    39)      3  -0.000003(    72)     0
      7  H        2   0.006001(     6)      1   0.005086(    40)      3  -0.001127(    73)     0
      8  H        2   0.006002(     7)      1   0.005078(    41)      3   0.001147(    74)     0
      9  C        6  -0.002966(     8)      2   0.011527(    42)      1  -0.000041(    75)     0
     10  H        6   0.006349(     9)      2   0.001110(    43)      1  -0.002173(    76)     0
     11  H        6   0.006345(    10)      2   0.001109(    44)      1   0.002174(    77)     0
     12  C        9  -0.002944(    11)      6   0.011607(    45)      2  -0.000016(    78)     0
     13  H        9   0.006228(    12)      6   0.001219(    46)      2  -0.002100(    79)     0
     14  H        9   0.006231(    13)      6   0.001198(    47)      2   0.002127(    80)     0
     15  C       12  -0.002993(    14)      9   0.011468(    48)      6  -0.000044(    81)     0
     16  H       12   0.006251(    15)      9   0.001267(    49)      6  -0.002107(    82)     0
     17  H       12   0.006241(    16)      9   0.001259(    50)      6   0.002103(    83)     0
     18  C       15  -0.003084(    17)     12   0.011207(    51)      9  -0.000038(    84)     0
     19  H       15   0.006215(    18)     12   0.001244(    52)      9  -0.002109(    85)     0
     20  H       15   0.006227(    19)     12   0.001216(    53)      9   0.002150(    86)     0
     21  C       18  -0.003376(    20)     15   0.010242(    54)     12  -0.000113(    87)     0
     22  H       18   0.006209(    21)     15   0.001164(    55)     12  -0.002181(    88)     0
     23  H       18   0.006189(    22)     15   0.001134(    56)     12   0.002236(    89)     0
     24  C       21  -0.003900(    23)     18   0.008158(    57)     15   0.000088(    90)     0
     25  H       21   0.006111(    24)     18   0.001228(    58)     15  -0.002300(    91)     0
     26  H       21   0.006036(    25)     18   0.001448(    59)     15   0.002207(    92)     0
     27  C       24  -0.003459(    26)     21   0.004956(    60)     18   0.000481(    93)     0
     28  H       24   0.005295(    27)     21   0.001997(    61)     18  -0.001721(    94)     0
     29  H       24   0.005648(    28)     21   0.002671(    62)     18   0.001377(    95)     0
     30  C       27   0.000087(    29)     24  -0.021886(    63)     21  -0.017121(    96)     0
     31  H       27   0.004445(    30)     24   0.001865(    64)     21   0.003084(    97)     0
     32  H       27   0.011153(    31)     24  -0.018493(    65)     21   0.013161(    98)     0
     33  C       30   0.051453(    32)     27   0.002324(    66)     24   0.085521(    99)     0
     34  H       33   0.011484(    33)     30   0.009273(    67)     27   0.078365(   100)     0
     35  H       33   0.012534(    34)     30   0.008878(    68)     27   0.079461(   101)     0
     36  H       30   0.014041(    35)     27  -0.012757(    69)     24  -0.076686(   102)     0
 -----------------------------------------------------------------------------------------------
 Internal  Forces:  Max     0.085520677 RMS     0.017808036

 GradGradGradGradGradGradGradGradGradGradGradGradGradGradGradGradGradGrad
 Berny optimization.
 Search for a local minimum.
 Step number   1 out of a maximum of  200
 All quantities printed in internal units (Hartrees-Bohrs-Radians)
 Second derivative matrix not updated -- first step.
 ITU=  0
     Eigenvalues ---    0.01014   0.01016   0.01028   0.01028   0.01028
     Eigenvalues ---    0.01032   0.01037   0.01071   0.01312   0.01976
     Eigenvalues ---    0.08427   0.13370   0.15083   0.15094   0.15113
     Eigenvalues ---    0.15114   0.15115   0.15120   0.15129   0.15296
     Eigenvalues ---    0.15820   0.16000   0.17237   0.17289   0.17292
     Eigenvalues ---    0.17292   0.17293   0.17293   0.17306   0.17324
     Eigenvalues ---    0.17543   0.19881   0.20945   0.23861   0.29418
     Eigenvalues ---    0.29426   0.29460   0.29461   0.29462   0.29462
     Eigenvalues ---    0.29463   0.29566   0.30331   0.32194   0.33834
     Eigenvalues ---    0.33966   0.33967   0.34027   0.34033   0.34033
     Eigenvalues ---    0.34036   0.34036   0.34037   0.34037   0.34037
     Eigenvalues ---    0.34037   0.34037   0.34037   0.34037   0.34037
     Eigenvalues ---    0.34064   0.34104   0.34104   0.34276   0.34277
     Eigenvalues ---    0.34299   0.35012   0.35313   0.35332   0.36582
     Eigenvalues ---    0.36627   0.36659   0.36681   0.36682   0.36682
     Eigenvalues ---    0.36686   0.36694   0.37162   0.39241   0.39324
     Eigenvalues ---    0.39326   0.39326   0.39328   0.39332   0.39340
     Eigenvalues ---    0.39352   0.39413   0.39726   0.42862   0.42864
     Eigenvalues ---    0.42864   0.42864   0.42873   0.42884   0.42895
     Eigenvalues ---    0.42925   0.43147   0.48000   0.53123   0.57454
     Eigenvalues --- 1000.000001000.00000
 RFO step:  Lambda=-6.31050188D-02 EMin= 1.01449310D-02
 Linear search not attempted -- first point.
 Maximum step size (   0.300) exceeded in Quadratic search.
    -- Step size scaled by   0.641
 Variable       Old X    -DE/DX   Delta X   Delta X   Delta X     New X
                                 (Linear)    (Quad)   (Total)
    B1        2.87308   0.00148   0.00000   0.00258   0.00258   2.87567
    B2        2.06829   0.00477   0.00000   0.00752   0.00752   2.07581
    A2        1.92443   0.00667   0.00000   0.01524   0.01524   1.93966
    B3        2.06866   0.00515   0.00000   0.00813   0.00813   2.07679
    A3        1.93731   0.00207   0.00000   0.00107   0.00107   1.93837
    D3        4.19337  -0.00109   0.00000  -0.00445  -0.00445   4.18892
    B4        2.06865   0.00516   0.00000   0.00814   0.00814   2.07678
    A4        1.93737   0.00207   0.00000   0.00097   0.00097   1.93833
    D4        2.08990   0.00108   0.00000   0.00408   0.00408   2.09399
    B5        2.88837  -0.00300   0.00000  -0.00536  -0.00536   2.88301
    A5        1.94593   0.01038   0.00000   0.01642   0.01642   1.96235
    D5        3.14200   0.00000   0.00000   0.00251   0.00251   3.14452
    B6        2.07156   0.00600   0.00000   0.00951   0.00951   2.08107
    A6        1.90492   0.00509   0.00000   0.00641   0.00641   1.91133
    D6        1.02042  -0.00113   0.00000  -0.00175  -0.00175   1.01868
    B7        2.07156   0.00600   0.00000   0.00952   0.00952   2.08107
    A7        1.90497   0.00508   0.00000   0.00629   0.00629   1.91126
    D7        5.26348   0.00115   0.00000   0.00497   0.00497   5.26845
    B8        2.89047  -0.00297   0.00000  -0.00531  -0.00531   2.88516
    A8        1.94309   0.01153   0.00000   0.02069   0.02069   1.96378
    D8        3.14277  -0.00004   0.00000   0.00565   0.00565   3.14841
    B9        2.07275   0.00635   0.00000   0.01008   0.01008   2.08283
    A9        1.91232   0.00111   0.00000  -0.00166  -0.00166   1.91067
    D9        1.02439  -0.00217   0.00000  -0.00395  -0.00395   1.02043
   B10        2.07275   0.00635   0.00000   0.01008   0.01008   2.08282
   A10        1.91235   0.00111   0.00000  -0.00263  -0.00263   1.90972
   D10        5.26097   0.00217   0.00000   0.01030   0.01030   5.27127
   B11        2.89051  -0.00294   0.00000  -0.00527  -0.00527   2.88523
   A11        1.94306   0.01161   0.00000   0.02161   0.02161   1.96467
   D11        3.14246  -0.00002   0.00000   0.00237   0.00237   3.14483
   B12        2.07269   0.00623   0.00000   0.00989   0.00989   2.08258
   A12        1.91222   0.00122   0.00000  -0.00202  -0.00202   1.91020
[...]
     4  H   -0.009888   0.008648   0.000442  -0.001914   0.007734  -0.000007
     5  H    0.008651  -0.009883   0.000443   0.007727  -0.001920  -0.000007
     6  C   -0.024735  -0.024663   0.366735   0.372488   0.372602  -0.039153
     7  H    0.692737  -0.036022  -0.007331   0.009826  -0.011991   0.000335
     8  H   -0.036022   0.692730  -0.007340  -0.012028   0.009822   0.000331
     9  C   -0.007331  -0.007340   4.747290  -0.021999  -0.021996   0.368807
    10  H    0.009826  -0.012028  -0.021999   0.699922  -0.038196  -0.007500
    11  H   -0.011991   0.009822  -0.021996  -0.038196   0.699789  -0.007521
    12  C    0.000335   0.000331   0.368807  -0.007500  -0.007521   4.742793
    13  H    0.008376  -0.002083   0.370246   0.009708  -0.012054  -0.022451
    14  H   -0.002092   0.008369   0.370156  -0.012027   0.009705  -0.022342
    15  C    0.000004   0.000004  -0.040849   0.000406   0.000401   0.372609
    16  H    0.000020  -0.000042  -0.022748   0.008124  -0.002021   0.369896
    17  H   -0.000042   0.000020  -0.022788  -0.002032   0.008135   0.370005
    18  C    0.000000   0.000000   0.007962   0.000002   0.000001  -0.042289
    19  H   -0.000011   0.000004  -0.007115   0.000018  -0.000041  -0.022495
    20  H    0.000004  -0.000011  -0.007097  -0.000041   0.000018  -0.022487
    21  C    0.000000   0.000000  -0.000409   0.000000   0.000000   0.007972
    22  H    0.000000   0.000000   0.000350  -0.000011   0.000005  -0.007160
    23  H    0.000000   0.000000   0.000348   0.000005  -0.000011  -0.006971
    24  C    0.000000   0.000000   0.000006   0.000000   0.000000  -0.000388
    25  H    0.000000   0.000000   0.000003   0.000000   0.000000   0.000342
    26  H    0.000000   0.000000   0.000002   0.000000   0.000000   0.000361
    27  C    0.000000   0.000000   0.000000   0.000000   0.000000   0.000006
    28  H    0.000000   0.000000   0.000000   0.000000   0.000000  -0.000003
    29  H    0.000000   0.000000   0.000000   0.000000   0.000000  -0.000006
    30  C    0.000000   0.000000   0.000000   0.000000   0.000000   0.000000
    31  H    0.000000   0.000000   0.000000   0.000000   0.000000   0.000000
    32  H    0.000000   0.000000   0.000000   0.000000   0.000000   0.000000
    33  C    0.000000   0.000000   0.000000   0.000000   0.000000   0.000000
    34  H    0.000000   0.000000   0.000000   0.000000   0.000000   0.000000
    35  H    0.000000   0.000000   0.000000   0.000000   0.000000   0.000000
    36  H    0.000000   0.000000   0.000000   0.000000   0.000000   0.000000
              13         14         15         16         17         18
     1  C    0.000269   0.000273   0.000007   0.000007   0.000007   0.000000
     2  C   -0.006699  -0.006681  -0.000377   0.000289   0.000297   0.000006
     3  H    0.000008   0.000008   0.000000   0.000000   0.000000   0.000000
     4  H   -0.000050   0.000025   0.000000   0.000003  -0.000009   0.000000
     5  H    0.000025  -0.000051   0.000000  -0.000009   0.000003   0.000000
     6  C   -0.023497  -0.023476   0.007680  -0.007065  -0.007054  -0.000404
     7  H    0.008376  -0.002092   0.000004   0.000020  -0.000042   0.000000
     8  H   -0.002083   0.008369   0.000004  -0.000042   0.000020   0.000000
     9  C    0.370246   0.370156  -0.040849  -0.022748  -0.022788   0.007962
    10  H    0.009708  -0.012027   0.000406   0.008124  -0.002032   0.000002
    11  H   -0.012054   0.009705   0.000401  -0.002021   0.008135   0.000001
    12  C   -0.022451  -0.022342   0.372609   0.369896   0.370005  -0.042289
    13  H    0.699151  -0.037423  -0.007288   0.009653  -0.011983   0.000371
    14  H   -0.037423   0.699217  -0.007317  -0.012051   0.009647   0.000362
    15  C   -0.007288  -0.007317   4.737977  -0.022380  -0.022363   0.373631
    16  H    0.009653  -0.012051  -0.022380   0.698881  -0.037311  -0.007295
    17  H   -0.011983   0.009647  -0.022363  -0.037311   0.698596  -0.007271
    18  C    0.000371   0.000362   0.373631  -0.007295  -0.007271   4.737373
    19  H    0.008175  -0.002016   0.370152   0.009632  -0.012044  -0.022678
    20  H   -0.002031   0.008171   0.369795  -0.011999   0.009634  -0.022375
    21  C    0.000003   0.000003  -0.040773   0.000373   0.000359   0.370572
    22  H    0.000019  -0.000040  -0.021966   0.008166  -0.002012   0.369982
    23  H   -0.000041   0.000019  -0.022498  -0.002024   0.008141   0.370821
    24  C    0.000000   0.000000   0.007357   0.000003   0.000003  -0.037998
    25  H   -0.000011   0.000005  -0.007173   0.000019  -0.000039  -0.021407
    26  H    0.000005  -0.000011  -0.007226  -0.000040   0.000018  -0.021826
    27  C    0.000000   0.000000  -0.000377   0.000000   0.000000   0.007803
    28  H    0.000000   0.000000   0.000446  -0.000011   0.000005  -0.007272
    29  H    0.000000   0.000000   0.000459   0.000005  -0.000010  -0.008217
    30  C    0.000000   0.000000   0.000008   0.000000   0.000000  -0.000406
    31  H    0.000000   0.000000   0.000011   0.000000   0.000000   0.000319
    32  H    0.000000   0.000000   0.000006   0.000000   0.000000   0.000242
    33  C    0.000000   0.000000   0.000000   0.000000   0.000000  -0.000024
    34  H    0.000000   0.000000   0.000000   0.000000   0.000000   0.000002
    35  H    0.000000   0.000000   0.000000   0.000000   0.000000  -0.000001
    36  H    0.000000   0.000000   0.000002   0.000000   0.000000  -0.000045
              19         20         21         22         23         24
     1  C    0.000000   0.000000   0.000000   0.000000   0.000000   0.000000
     2  C    0.000003   0.000003   0.000000   0.000000   0.000000   0.000000
     3  H    0.000000   0.000000   0.000000   0.000000   0.000000   0.000000
     4  H    0.000000   0.000000   0.000000   0.000000   0.000000   0.000000
     5  H    0.000000   0.000000   0.000000   0.000000   0.000000   0.000000
     6  C    0.000343   0.000351   0.000007   0.000003   0.000004   0.000000
     7  H   -0.000011   0.000004   0.000000   0.000000   0.000000   0.000000
     8  H    0.000004  -0.000011   0.000000   0.000000   0.000000   0.000000
     9  C   -0.007115  -0.007097  -0.000409   0.000350   0.000348   0.000006
    10  H    0.000018  -0.000041   0.000000  -0.000011   0.000005   0.000000
    11  H   -0.000041   0.000018   0.000000   0.000005  -0.000011   0.000000
    12  C   -0.022495  -0.022487   0.007972  -0.007160  -0.006971  -0.000388
    13  H    0.008175  -0.002031   0.000003   0.000019  -0.000041   0.000000
    14  H   -0.002016   0.008171   0.000003  -0.000040   0.000019   0.000000
    15  C    0.370152   0.369795  -0.040773  -0.021966  -0.022498   0.007357
    16  H    0.009632  -0.011999   0.000373   0.008166  -0.002024   0.000003
    17  H   -0.012044   0.009634   0.000359  -0.002012   0.008141   0.000003
    18  C   -0.022678  -0.022375   0.370572   0.369982   0.370821  -0.037998
    19  H    0.698087  -0.037217  -0.007250   0.009598  -0.011956   0.000391
    20  H   -0.037217   0.698560  -0.007376  -0.012025   0.009584   0.000391
    21  C   -0.007250  -0.007376   4.751342  -0.022780  -0.023171   0.351410
    22  H    0.009598  -0.012025  -0.022780   0.697038  -0.036967  -0.006940
    23  H   -0.011956   0.009584  -0.023171  -0.036967   0.696301  -0.006880
    24  C    0.000391   0.000391   0.351410  -0.006940  -0.006880   4.807394
    25  H    0.008137  -0.002000   0.369015   0.009521  -0.011954  -0.020719
    26  H   -0.002011   0.008110   0.370551  -0.011994   0.009569  -0.023909
    27  C    0.000000   0.000003  -0.045837   0.000282   0.000391   0.424607
    28  H    0.000016  -0.000042  -0.020382   0.007888  -0.002092   0.367782
    29  H   -0.000038   0.000014  -0.017129  -0.002059   0.007691   0.366919
    30  C    0.000000   0.000000   0.009251  -0.000002  -0.000019  -0.055494
    31  H   -0.000013   0.000004  -0.003853   0.000008  -0.000048  -0.035320
    32  H    0.000005  -0.000013  -0.007195  -0.000048   0.000011  -0.025791
    33  C    0.000000   0.000000   0.000837   0.000001  -0.000013  -0.015792
    34  H    0.000000   0.000000  -0.000097   0.000001   0.000000   0.001673
    35  H    0.000000   0.000000   0.000051   0.000000   0.000000  -0.001051
    36  H    0.000000   0.000000   0.002134  -0.000032   0.000007  -0.023972
              25         26         27         28         29         30
     1  C    0.000000   0.000000   0.000000   0.000000   0.000000   0.000000
     2  C    0.000000   0.000000   0.000000   0.000000   0.000000   0.000000
     3  H    0.000000   0.000000   0.000000   0.000000   0.000000   0.000000
     4  H    0.000000   0.000000   0.000000   0.000000   0.000000   0.000000
     5  H    0.000000   0.000000   0.000000   0.000000   0.000000   0.000000
     6  C    0.000000   0.000000   0.000000   0.000000   0.000000   0.000000
     7  H    0.000000   0.000000   0.000000   0.000000   0.000000   0.000000
     8  H    0.000000   0.000000   0.000000   0.000000   0.000000   0.000000
     9  C    0.000003   0.000002   0.000000   0.000000   0.000000   0.000000
    10  H    0.000000   0.000000   0.000000   0.000000   0.000000   0.000000
    11  H    0.000000   0.000000   0.000000   0.000000   0.000000   0.000000
    12  C    0.000342   0.000361   0.000006  -0.000003  -0.000006   0.000000
    13  H   -0.000011   0.000005   0.000000   0.000000   0.000000   0.000000
    14  H    0.000005  -0.000011   0.000000   0.000000   0.000000   0.000000
    15  C   -0.007173  -0.007226  -0.000377   0.000446   0.000459   0.000008
    16  H    0.000019  -0.000040   0.000000  -0.000011   0.000005   0.000000
    17  H   -0.000039   0.000018   0.000000   0.000005  -0.000010   0.000000
    18  C   -0.021407  -0.021826   0.007803  -0.007272  -0.008217  -0.000406
    19  H    0.008137  -0.002011   0.000000   0.000016  -0.000038   0.000000
    20  H   -0.002000   0.008110   0.000003  -0.000042   0.000014   0.000000
    21  C    0.369015   0.370551  -0.045837  -0.020382  -0.017129   0.009251
    22  H    0.009521  -0.011994   0.000282   0.007888  -0.002059  -0.000002
    23  H   -0.011954   0.009569   0.000391  -0.002092   0.007691  -0.000019
    24  C   -0.020719  -0.023909   0.424607   0.367782   0.366919  -0.055494
    25  H    0.693517  -0.037015  -0.007218   0.009356  -0.011913   0.000455
    26  H   -0.037015   0.695687  -0.006293  -0.011552   0.009348   0.000463
    27  C   -0.007218  -0.006293   4.691485  -0.029618  -0.034233   0.402466
    28  H    0.009356  -0.011552  -0.029618   0.692139  -0.034734  -0.000807
    29  H   -0.011913   0.009348  -0.034233  -0.034734   0.684564   0.000963
    30  C    0.000455   0.000463   0.402466  -0.000807   0.000963   4.766340
    31  H    0.007784  -0.002080   0.365638   0.009814  -0.010537  -0.029787
    32  H   -0.002142   0.008557   0.342483  -0.011269   0.010190  -0.006710
    33  C   -0.000049   0.000024  -0.075165  -0.003110   0.011445   0.665630
    34  H    0.000004  -0.000001   0.006131  -0.000277  -0.000720  -0.006568
    35  H   -0.000003   0.000000  -0.005070   0.000162   0.000151  -0.043924
    36  H    0.000006  -0.000088  -0.048378   0.012464  -0.001894   0.338078
              31         32         33         34         35         36
     1  C    0.000000   0.000000   0.000000   0.000000   0.000000   0.000000
     2  C    0.000000   0.000000   0.000000   0.000000   0.000000   0.000000
     3  H    0.000000   0.000000   0.000000   0.000000   0.000000   0.000000
     4  H    0.000000   0.000000   0.000000   0.000000   0.000000   0.000000
     5  H    0.000000   0.000000   0.000000   0.000000   0.000000   0.000000
     6  C    0.000000   0.000000   0.000000   0.000000   0.000000   0.000000
     7  H    0.000000   0.000000   0.000000   0.000000   0.000000   0.000000
     8  H    0.000000   0.000000   0.000000   0.000000   0.000000   0.000000
     9  C    0.000000   0.000000   0.000000   0.000000   0.000000   0.000000
    10  H    0.000000   0.000000   0.000000   0.000000   0.000000   0.000000
    11  H    0.000000   0.000000   0.000000   0.000000   0.000000   0.000000
    12  C    0.000000   0.000000   0.000000   0.000000   0.000000   0.000000
    13  H    0.000000   0.000000   0.000000   0.000000   0.000000   0.000000
    14  H    0.000000   0.000000   0.000000   0.000000   0.000000   0.000000
    15  C    0.000011   0.000006   0.000000   0.000000   0.000000   0.000002
    16  H    0.000000   0.000000   0.000000   0.000000   0.000000   0.000000
    17  H    0.000000   0.000000   0.000000   0.000000   0.000000   0.000000
    18  C    0.000319   0.000242  -0.000024   0.000002  -0.000001  -0.000045
    19  H   -0.000013   0.000005   0.000000   0.000000   0.000000   0.000000
    20  H    0.000004  -0.000013   0.000000   0.000000   0.000000   0.000000
    21  C   -0.003853  -0.007195   0.000837  -0.000097   0.000051   0.002134
    22  H    0.000008  -0.000048   0.000001   0.000001   0.000000  -0.000032
    23  H   -0.000048   0.000011  -0.000013   0.000000   0.000000   0.000007
    24  C   -0.035320  -0.025791  -0.015792   0.001673  -0.001051  -0.023972
    25  H    0.007784  -0.002142  -0.000049   0.000004  -0.000003   0.000006
    26  H   -0.002080   0.008557   0.000024  -0.000001   0.000000  -0.000088
    27  C    0.365638   0.342483  -0.075165   0.006131  -0.005070  -0.048378
    28  H    0.009814  -0.011269  -0.003110  -0.000277   0.000162   0.012464
    29  H   -0.010537   0.010190   0.011445  -0.000720   0.000151  -0.001894
    30  C   -0.029787  -0.006710   0.665630  -0.006568  -0.043924   0.338078
    31  H    0.690978  -0.032342  -0.006360  -0.000715   0.003381   0.012746
    32  H   -0.032342   0.691224   0.010703  -0.000270  -0.000138  -0.010494
    33  C   -0.006360   0.010703   4.828183   0.381479   0.384306  -0.035976
    34  H   -0.000715  -0.000270   0.381479   0.644213  -0.053154  -0.032576
    35  H    0.003381  -0.000138   0.384306  -0.053154   0.651051   0.013648
    36  H    0.012746  -0.010494  -0.035976  -0.032576   0.013648   0.765122
 Mulliken charges:
               1
     1  C   -0.062175
     2  C   -0.077833
     3  H    0.039410
     4  H    0.035175
     5  H    0.035144
     6  C   -0.062665
     7  H    0.028259
     8  H    0.028259
     9  C   -0.040040
    10  H    0.020462
    11  H    0.020515
    12  C   -0.039977
    13  H    0.019603
    14  H    0.019566
    15  C   -0.040369
    16  H    0.019925
    17  H    0.020086
    18  C   -0.039940
    19  H    0.020324
    20  H    0.020073
    21  C   -0.037627
    22  H    0.021178
    23  H    0.021755
    24  C   -0.073685
    25  H    0.023481
    26  H    0.021348
    27  C    0.010893
    28  H    0.021097
    29  H    0.029743
    30  C   -0.039937
    31  H    0.030372
    32  H    0.032989
    33  C   -0.146120
    34  H    0.060874
    35  H    0.050590
    36  H    0.009251
 Sum of Mulliken charges =   0.00000
 Mulliken charges with hydrogens summed into heavy atoms:
               1
     1  C    0.047553
     2  C   -0.021316
     6  C   -0.021688
     9  C   -0.000871
    12  C    0.000034
    15  C    0.000028
    18  C    0.002992
    21  C    0.007202
    24  C   -0.022845
    27  C    0.074254
    30  C   -0.030687
    33  C   -0.034657
 Electronic spatial extent (au):  <R**2>=           6852.8115
 Charge=              0.0000 electrons
 Dipole moment (field-independent basis, Debye):
    X=              0.9253    Y=             -0.0888    Z=              0.0062  Tot=              0.9296
 Quadrupole moment (field-independent basis, Debye-Ang):
   XX=            -89.7499   YY=            -80.1499   ZZ=            -79.3389
   XY=              1.5309   XZ=              0.6865   YZ=              0.2370
 Traceless Quadrupole moment (field-independent basis, Debye-Ang):
   XX=             -6.6703   YY=              2.9297   ZZ=              3.7406
   XY=              1.5309   XZ=              0.6865   YZ=              0.2370
 Octapole moment (field-independent basis, Debye-Ang**2):
  XXX=             81.8289  YYY=             -2.1753  ZZZ=             -0.0060  XYY=             -3.9915
  XXY=             -8.6437  XXZ=            -10.2340  XZZ=              1.8743  YZZ=              0.3129
  YYZ=              0.5686  XYZ=              0.3398
 Hexadecapole moment (field-independent basis, Debye-Ang**3):
 XXXX=          -9771.6335 YYYY=           -334.1544 ZZZZ=           -178.3055 XXXY=            107.1286
 XXXZ=             94.8401 YYYX=             13.5367 YYYZ=              2.8491 ZZZX=              2.7472
 ZZZY=             -1.9929 XXYY=          -1555.6502 XXZZ=          -1533.0922 YYZZ=            -82.7868
 XXYZ=              6.1848 YYXZ=             -3.5419 ZZXY=             -3.3571
 N-N= 6.548141442569D+02 E-N=-2.395489985408D+03  KE= 4.648474882465D+02
 1\1\GINC-NODE0235\POpt\RM06\def2SVP\C12H24\JGOODPAS\17-Oct-2017\1\\# O
 pt=(Z-mat,maxcycle=200) m06/def2svp Integral=SuperFineGrid\\C12H24\\0,
 1\C\C,1,B1\H,1,B2,2,A2\H,1,B3,2,A3,3,D3,0\H,1,B4,2,A4,3,D4,0\C,2,B5,1,
 A5,3,D5,0\H,2,B6,1,A6,3,D6,0\H,2,B7,1,A7,3,D7,0\C,6,B8,2,A8,1,D8,0\H,6
 ,B9,2,A9,1,D9,0\H,6,B10,2,A10,1,D10,0\C,9,B11,6,A11,2,D11,0\H,9,B12,6,
 A12,2,D12,0\H,9,B13,6,A13,2,D13,0\C,12,B14,9,A14,6,D14,0\H,12,B15,9,A1
 5,6,D15,0\H,12,B16,9,A16,6,D16,0\C,15,B17,12,A17,9,D17,0\H,15,B18,12,A
 18,9,D18,0\H,15,B19,12,A19,9,D19,0\C,18,B20,15,A20,12,D20,0\H,18,B21,1
 5,A21,12,D21,0\H,18,B22,15,A22,12,D22,0\C,21,B23,18,A23,15,D23,0\H,21,
 B24,18,A24,15,D24,0\H,21,B25,18,A25,15,D25,0\C,24,B26,21,A26,18,D26,0\
 H,24,B27,21,A27,18,D27,0\H,24,B28,21,A28,18,D28,0\C,27,B29,24,A29,21,D
 29,0\H,27,B30,24,A30,21,D30,0\H,27,B31,24,A31,21,D31,0\C,30,B32,27,A32
 ,24,D32,0\H,33,B33,30,A33,27,D33,0\H,33,B34,30,A34,27,D34,0\H,30,B35,2
 7,A35,24,D35,0\\B1=1.51595261\B2=1.10117284\A2=112.26381742\B3=1.10337
 663\A3=111.19030766\D3=239.56963359\B4=1.10338382\A4=111.18971858\D4=1
 20.42814476\B5=1.51874626\A5=113.11076603\D5=180.00494698\B6=1.1069135
 2\A6=109.99666321\D6=57.76761724\B7=1.10690435\A7=110.00579119\D7=302.
 26095502\B8=1.51751802\A8=113.7653839\D8=180.07367231\B9=1.10863229\A9
 =109.36899676\D9=57.41636516\B10=1.10862112\A10=109.36824738\D10=302.7
 282861\B11=1.51767332\A11=113.74408212\D11=180.04158385\B12=1.10845441
 \A12=109.38639973\D12=57.42920485\B13=1.10844684\A13=109.39811078\D13=
 302.6752537\B14=1.51766236\A14=113.72136304\D14=180.12595511\B15=1.108
 41389\A15=109.39547201\D15=57.50672379\B16=1.10839385\A16=109.39969401
 \D16=302.74566538\B17=1.5177081\A17=113.68961533\D17=180.09130047\B18=
 1.1083603\A18=109.39618409\D18=57.49280845\B19=1.1083766\A19=109.40919
 975\D19=302.71592192\B20=1.51803889\A20=113.63645941\D20=180.13775674\
 B21=1.1082857\A21=109.40161887\D21=57.53240762\B22=1.10822265\A22=109.
 41541831\D22=302.72297856\B23=1.51825436\A23=113.27599013\D23=179.9340
 2193\B24=1.10785783\A24=109.40099449\D24=57.39422559\B25=1.10816961\A2
 5=109.41767603\D25=302.47481741\B26=1.52335466\A26=112.59609543\D26=17
 9.86177438\B27=1.10732491\A27=109.64973047\D27=57.4676998\B28=1.106488
 28\A28=110.03362555\D28=301.76522539\B29=1.50846968\A29=109.50209026\D
 29=181.9888292\B30=1.10840405\A30=108.65638343\D30=57.23342183\B31=1.1
 0584788\A31=109.00322608\D31=302.64597973\B32=1.34958366\A32=138.13877
 163\D32=294.31701553\B33=1.0963995\A33=120.42139685\B34=1.10138867\A34
 =124.31402918\B35=1.11664693\A35=99.42524812\D35=58.43574994\D33=105.\
 D34=285.\\Version=ES64L-G09RevD.01\State=1-A\HF=-470.9238516\RMSD=7.49
 3e-09\RMSF=8.613e-03\Dipole=0.186571,-0.0035645,-0.314548\Quadrupole=0
 .6312108,2.8517182,-3.482929,-0.3837159,3.0798802,0.3997615\PG=C01 [X(
 C12H24)]\\@


 THE SECRET OF SUCCESS IN LIFE IS TO EAT WHAT YOU LIKE, AND LET THE FOOD
 FIGHT IT OUT INSIDE YOU. -- FROM A FORTUNE COOKIE
 Job cpu time:       0 days  5 hours 31 minutes 52.7 seconds.
 File lengths (MBytes):  RWF=     40 Int=      0 D2E=      0 Chk=     17 Scr=      1
 Normal termination of Gaussian 09 at Tue Oct 17 17:34:00 2017.
19164.38user 748.30system 44:58.39elapsed 737%CPU (0avgtext+0avgdata 7506668maxresident)k
328688inputs+1791328outputs (230major+477507714minor)pagefaults 0swaps
