 Entering Gaussian System, Link 0=g09
 Initial command:
 /panfs/roc/msisoft/gaussian/g09.e01_mesabi/g09/l1.exe "/scratch/graha682/4575968.mesabim3.msi.umn.edu/Gau-12273.inp" -scrdir="/scratch/graha682/4575968.mesabim3.msi.umn.edu/"
 Entering Link 1 = /panfs/roc/msisoft/gaussian/g09.e01_mesabi/g09/l1.exe PID=     12274.
  
 Copyright (c) 1988,1990,1992,1993,1995,1998,2003,2009,2015,
            Gaussian, Inc.  All Rights Reserved.
  
 This is part of the Gaussian(R) 09 program.  It is based on
 the Gaussian(R) 03 system (copyright 2003, Gaussian, Inc.),
 the Gaussian(R) 98 system (copyright 1998, Gaussian, Inc.),
 the Gaussian(R) 94 system (copyright 1995, Gaussian, Inc.),
 the Gaussian 92(TM) system (copyright 1992, Gaussian, Inc.),
 the Gaussian 90(TM) system (copyright 1990, Gaussian, Inc.),
 the Gaussian 88(TM) system (copyright 1988, Gaussian, Inc.),
 the Gaussian 86(TM) system (copyright 1986, Carnegie Mellon
 University), and the Gaussian 82(TM) system (copyright 1983,
 Carnegie Mellon University). Gaussian is a federally registered
 trademark of Gaussian, Inc.
  
 This software contains proprietary and confidential information,
 including trade secrets, belonging to Gaussian, Inc.
  
 This software is provided under written license and may be
 used, copied, transmitted, or stored only in accord with that
 written license.
  
 The following legend is applicable only to US Government
 contracts under FAR:
  
                    RESTRICTED RIGHTS LEGEND
  
 Use, reproduction and disclosure by the US Government is
 subject to restrictions as set forth in subparagraphs (a)
 and (c) of the Commercial Computer Software - Restricted
 Rights clause in FAR 52.227-19.
  
 Gaussian, Inc.
 340 Quinnipiac St., Bldg. 40, Wallingford CT 06492
  
  
 ---------------------------------------------------------------
 Warning -- This program may not be used in any manner that
 competes with the business of Gaussian, Inc. or will provide
 assistance to any competitor of Gaussian, Inc.  The licensee
 of this program is prohibited from giving any competitor of
 Gaussian, Inc. access to this program.  By using this program,
 the user acknowledges that Gaussian, Inc. is engaged in the
 business of creating and licensing software in the field of
 computational chemistry and represents and warrants to the
 licensee that it is not a competitor of Gaussian, Inc. and that
 it will not use this program in any manner prohibited above.
 ---------------------------------------------------------------
  

 Cite this work as:
 Gaussian 09, Revision E.01,
 M. J. Frisch, G. W. Trucks, H. B. Schlegel, G. E. Scuseria, 
 M. A. Robb, J. R. Cheeseman, G. Scalmani, V. Barone, B. Mennucci, 
 G. A. Petersson, H. Nakatsuji, M. Caricato, X. Li, H. P. Hratchian, 
 A. F. Izmaylov, J. Bloino, G. Zheng, J. L. Sonnenberg, M. Hada, 
 M. Ehara, K. Toyota, R. Fukuda, J. Hasegawa, M. Ishida, T. Nakajima, 
 Y. Honda, O. Kitao, H. Nakai, T. Vreven, J. A. Montgomery, Jr., 
 J. E. Peralta, F. Ogliaro, M. Bearpark, J. J. Heyd, E. Brothers, 
 K. N. Kudin, V. N. Staroverov, T. Keith, R. Kobayashi, J. Normand, 
 K. Raghavachari, A. Rendell, J. C. Burant, S. S. Iyengar, J. Tomasi, 
 M. Cossi, N. Rega, J. M. Millam, M. Klene, J. E. Knox, J. B. Cross, 
 V. Bakken, C. Adamo, J. Jaramillo, R. Gomperts, R. E. Stratmann, 
 O. Yazyev, A. J. Austin, R. Cammi, C. Pomelli, J. W. Ochterski, 
 R. L. Martin, K. Morokuma, V. G. Zakrzewski, G. A. Voth, 
 P. Salvador, J. J. Dannenberg, S. Dapprich, A. D. Daniels, 
 O. Farkas, J. B. Foresman, J. V. Ortiz, J. Cioslowski, 
 and D. J. Fox, Gaussian, Inc., Wallingford CT, 2013.
 
 ******************************************
 Gaussian 09:  ES64L-G09RevE.01 30-Nov-2015
                 4-Dec-2017 
 ******************************************
 %LindaWorkers=in-cn0161
 %NProcShared=24
 Will use up to   24 processors via shared memory.
 %Mem=59800mb
 %chk=20171201_def2svp_m06_90c12h24.chk
 SetLPE:  input flags=" -workerwait 900 -opt "Tsnet.Node.lindarsharg: ssh " "
 SetLPE:    new flags=" -workerwait 900 -opt "Tsnet.Node.lindarsharg: ssh "  -nodelist 'in-cn0161'"
 Will use up to    1 processors via Linda.
 -----------------------------
 # hf/sto-3g geom=connectivity
 -----------------------------
 1/38=1,57=2/1;
 2/12=2,17=6,18=5,40=1/2;
 3/6=3,11=9,16=1,25=1,30=1/1,2,3;
 4//1;
 5/5=2,38=5/2;
 6/7=2,8=2,9=2,10=2,28=1/1;
 99/5=1,9=1/99;
 -------------------
 Title Card Required
 -------------------
 Symbolic Z-matrix:
 Charge =  0 Multiplicity = 1
 C                    -6.85444  -0.13488  -0.16841 
 H                    -7.04021  -0.81833   0.67765 
 H                    -6.88444  -0.74368  -1.08813 
 H                    -7.69705   0.57265  -0.21285 
 C                    -5.52036   0.56989  -0.02104 
 H                    -5.36871   1.27332  -0.86199 
 H                    -5.52345   1.19984   0.8891 
 C                    -4.34402  -0.3886    0.0425 
 H                    -4.3351   -1.02083  -0.8681 
 H                    -4.48926  -1.09459   0.8849 
 C                    -3.00139   0.30277   0.18946 
 H                    -3.00709   0.93031   1.10287 
 H                    -2.85037   1.00933  -0.6497 
 C                    -1.82468  -0.66362   0.24693 
 H                    -1.80066  -1.27769  -0.67321 
 H                    -1.99464  -1.37372   1.0812 
 C                    -0.51189   0.02301   0.42809 
 H                    -0.40546   0.63496   1.33864 
 C                     0.51189  -0.02301  -0.42809 
 H                     0.55208   0.72527  -1.23641 
 C                     1.61028  -1.03344  -0.4121 
 H                     1.48967  -1.70177   0.46145 
 H                     2.58551  -0.5249   -0.27265 
 C                     1.6776   -1.8629   -1.68855 
 H                     1.77561  -1.18736  -2.56159 
 H                     0.7131   -2.38773  -1.83186 
 C                     2.81442  -2.86779  -1.69652 
 H                     3.77687  -2.33668  -1.55235 
 H                     2.71887  -3.53907  -0.81946 
 C                     2.88318  -3.70151  -2.96407 
 H                     1.9193   -4.22724  -3.1039 
 H                     2.97646  -3.02667  -3.83648 
 C                     4.02301  -4.70098  -2.95739 
 H                     4.05994  -5.29739  -3.88232 
 H                     4.99735  -4.19423  -2.85103 
 H                     3.93114  -5.40506  -2.11286 
 
                          Input orientation:                          
 ---------------------------------------------------------------------
 Center     Atomic      Atomic             Coordinates (Angstroms)
 Number     Number       Type             X           Y           Z
 ---------------------------------------------------------------------
      1          6           0       -6.854443   -0.134877   -0.168414
      2          1           0       -7.040212   -0.818328    0.677653
      3          1           0       -6.884443   -0.743683   -1.088126
      4          1           0       -7.697052    0.572652   -0.212848
      5          6           0       -5.520363    0.569890   -0.021040
      6          1           0       -5.368713    1.273324   -0.861988
      7          1           0       -5.523451    1.199843    0.889097
      8          6           0       -4.344023   -0.388597    0.042497
      9          1           0       -4.335099   -1.020835   -0.868101
     10          1           0       -4.489260   -1.094591    0.884904
     11          6           0       -3.001393    0.302765    0.189464
     12          1           0       -3.007087    0.930311    1.102873
     13          1           0       -2.850369    1.009328   -0.649702
     14          6           0       -1.824677   -0.663624    0.246928
     15          1           0       -1.800656   -1.277687   -0.673205
     16          1           0       -1.994641   -1.373719    1.081199
     17          6           0       -0.511885    0.023005    0.428088
     18          1           0       -0.405457    0.634962    1.338635
     19          6           0        0.511885   -0.023005   -0.428088
     20          1           0        0.552078    0.725269   -1.236410
     21          6           0        1.610278   -1.033439   -0.412096
     22          1           0        1.489666   -1.701766    0.461453
     23          1           0        2.585505   -0.524896   -0.272645
     24          6           0        1.677596   -1.862899   -1.688551
     25          1           0        1.775611   -1.187360   -2.561593
     26          1           0        0.713097   -2.387726   -1.831861
     27          6           0        2.814421   -2.867788   -1.696520
     28          1           0        3.776873   -2.336684   -1.552346
     29          1           0        2.718870   -3.539071   -0.819455
     30          6           0        2.883181   -3.701508   -2.964073
     31          1           0        1.919301   -4.227241   -3.103897
     32          1           0        2.976464   -3.026669   -3.836478
     33          6           0        4.023007   -4.700977   -2.957394
     34          1           0        4.059937   -5.297391   -3.882320
     35          1           0        4.997348   -4.194233   -2.851032
     36          1           0        3.931135   -5.405058   -2.112856
 ---------------------------------------------------------------------
                    Distance matrix (angstroms):
                    1          2          3          4          5
     1  C    0.000000
     2  H    1.103379   0.000000
     3  H    1.103365   1.774207   0.000000
     4  H    1.101164   1.777430   1.777409   0.000000
     5  C    1.515977   2.173767   2.173674   2.185125   0.000000
     6  H    2.161358   3.088594   2.533159   2.516642   1.106802
     7  H    2.161330   2.533434   3.088528   2.516385   1.106887
     8  C    2.532008   2.803128   2.803235   3.497428   1.518720
     9  H    2.760720   3.122179   2.573787   3.777735   2.157028
    10  H    2.761272   2.574224   3.122961   3.778186   2.157407
    11  C    3.894304   4.219862   4.219641   4.720583   2.541826
    12  H    4.189623   4.416407   4.757796   4.884139   2.776624
    13  H    4.192070   4.759935   4.420296   4.885884   2.777983
    14  C    5.074508   5.235577   5.233547   6.018684   3.905312
    15  H    5.205919   5.430357   5.128568   6.197029   4.204174
    16  H    5.168553   5.092062   5.386379   6.162825   4.174118
    17  C    6.372502   6.587046   6.595166   7.234607   5.058226
    18  H    6.667328   6.824143   7.054579   7.455088   5.292940
    19  C    7.371752   7.673941   7.460610   8.233334   6.074967
    20  H    7.532398   7.980552   7.581666   8.313791   6.194821
    21  C    8.515768   8.721514   8.526504   9.446990   7.319128
    22  H    8.513286   8.578230   8.569996   9.488069   7.384696
    23  H    9.448577   9.676962   9.507513  10.341140   8.183334
    24  C    8.837000   9.093416   8.655730   9.797634   7.778796
    25  H    9.017364   9.399342   8.795709   9.916935   7.922978
    26  H    8.069080   8.299065   7.808882   9.061769   7.133204
    27  C   10.163210  10.341700   9.947358  11.159255   9.170250
    28  H   10.944775  11.148436  10.789662  11.912575   9.860612
    29  H   10.181391  10.241263  10.005499  11.214530   9.241536
    30  C   10.740479  10.956670  10.376627  11.737930   9.875517
    31  H   10.116476  10.305031   9.680104  11.129752   9.373637
    32  H   10.884111  11.206603  10.488229  11.832571   9.984431
    33  C   12.122153  12.275314  11.752736  13.141669  11.290709
    34  H   12.632036  12.808929  12.178802  13.643651  11.879251
    35  H   12.811704  12.990427  12.497643  13.814159  11.888144
    36  H   12.160772  12.214561  11.821811  13.212032  11.375699
                    6          7          8          9         10
     6  H    0.000000
     7  H    1.759444   0.000000
     8  C    2.151758   2.151958   0.000000
     9  H    2.516259   3.071048   1.108600   0.000000
    10  H    3.071171   2.516743   1.108680   1.761315   0.000000
    11  C    2.766178   2.766769   1.517312   2.156185   2.156383
    12  H    3.091216   2.539771   2.156690   3.074951   2.518844
    13  H    2.541027   3.090237   2.159707   2.524615   3.076923
    14  C    4.188276   4.191160   2.542545   2.770038   2.773580
    15  H    4.390254   4.736892   2.787728   2.554870   3.112847
    16  H    4.708203   4.371799   2.751175   3.066275   2.517850
    17  C    5.178453   5.168488   3.873419   4.169733   4.156587
    18  H    5.466640   5.168659   4.270825   4.801399   4.458102
    19  C    6.037398   6.297270   4.892336   4.968152   5.280501
    20  H    5.957879   6.454073   5.181516   5.202791   5.764283
    21  C    7.364094   7.587539   6.006345   5.962852   6.236210
    22  H    7.592103   7.601712   5.994320   6.013258   6.024577
    23  H    8.176216   8.371352   6.938029   6.963856   7.191438
    24  C    7.756905   8.238916   6.436613   6.126558   6.726297
    25  H    7.744998   8.419163   6.698450   6.343219   7.150913
    26  H    7.164661   7.692126   5.751887   5.318036   6.009786
    27  C    9.209176   9.630739   7.772637   7.430555   7.946806
    28  H    9.856495  10.245179   8.502207   8.246438   8.707005
    29  H    9.411161   9.659830   7.781575   7.490151   7.799837
    30  C    9.862123  10.466213   8.499842   7.980142   8.715706
    31  H    9.401995  10.039512   7.991508   7.375455   8.172740
    32  H    9.847817  10.603915   8.694561   8.142087   9.042201
    33  C   11.326403  11.863811   9.879431   9.368379  10.011391
    34  H   11.882598  12.522851  10.494140   9.891970  10.652639
    35  H   11.887207  12.400477  10.493645  10.054702  10.656488
    36  H   11.517493  11.917451   9.914064   9.439357   9.923193
                   11         12         13         14         15
    11  C    0.000000
    12  H    1.108225   0.000000
    13  H    1.107357   1.761341   0.000000
    14  C    1.523768   2.161334   2.157489   0.000000
    15  H    2.164208   3.079803   2.516523   1.106479   0.000000
    16  H    2.149265   2.516758   3.067116   1.108662   1.767706
    17  C    2.516517   2.739447   2.757349   1.492549   2.136721
    18  H    2.858292   2.628934   3.173520   2.211862   3.106816
    19  C    3.581985   3.954215   3.524142   2.515067   2.642377
    20  H    3.852115   4.264029   3.464327   3.127025   3.140763
    21  C    4.838887   5.241327   4.911897   3.517100   3.429622
    22  H    4.925620   5.249766   5.236468   3.479746   3.506210
    23  H    5.666745   5.940266   5.660808   4.442849   4.468283
    24  C    5.487256   6.127016   5.461809   4.177350   3.670373
    25  H    5.710390   6.386474   5.466302   4.596103   4.045226
    26  H    5.012179   5.784618   5.063178   3.705967   2.982218
    27  C    6.887164   7.493471   6.943896   5.491498   4.987437
    28  H    7.479671   7.984081   7.478696   6.116689   5.744841
    29  H    6.964125   7.513808   7.192578   5.481714   5.055825
    30  C    7.785063   8.525788   7.773152   6.457801   5.749897
    31  H    7.455227   8.280492   7.496297   6.159932   5.333499
    32  H    7.939025   8.709636   7.771537   6.731206   5.990501
    33  C    9.180541   9.880252   9.229102   7.795082   7.131022
    34  H    9.889568  10.657356   9.898325   8.552845   7.797627
    35  H    9.666823  10.293944   9.670034   8.282667   7.711163
    36  H    9.270376   9.930596   9.448490   7.821710   7.208413
                   16         17         18         19         20
    16  H    0.000000
    17  C    2.139149   0.000000
    18  H    2.574214   1.102231   0.000000
    19  C    3.222584   1.335387   2.096604   0.000000
    20  H    4.032722   2.096604   2.748797   1.102231   0.000000
    21  C    3.916780   2.515067   3.148303   1.492549   2.211862
    22  H    3.554166   2.642377   3.133885   2.136721   3.106816
    23  H    4.850890   3.222584   3.589895   2.139149   2.574214
    24  C    4.625596   3.581985   4.443228   2.516517   2.858292
    25  H    5.245900   3.954215   4.825940   2.739447   2.628934
    26  H    4.104385   3.524142   4.521045   2.757349   3.173520
    27  C    5.751090   4.892336   5.643495   3.873419   4.270825
    28  H    6.416637   5.280501   5.889001   4.156587   4.458102
    29  H    5.524348   4.968152   5.642812   4.169733   4.801399
    30  C    6.750998   6.074967   6.937825   5.058226   5.292940
    31  H    6.401293   6.037398   6.984383   5.178453   5.466640
    32  H    7.185240   6.297270   7.185174   5.168488   5.168659
    33  C    7.974520   7.371752   8.157168   6.372502   6.667328
    34  H    8.757262   8.233334   9.076944   7.234607   7.455088
    35  H    8.503273   7.673941   8.370468   6.587046   6.824142
    36  H    7.846560   7.460610   8.197601   6.595166   7.054579
                   21         22         23         24         25
    21  C    0.000000
    22  H    1.106479   0.000000
    23  H    1.108662   1.767706   0.000000
    24  C    1.523768   2.164208   2.149265   0.000000
    25  H    2.161334   3.079803   2.516758   1.108225   0.000000
    26  H    2.157489   2.516523   3.067116   1.107357   1.761341
    27  C    2.542545   2.787728   2.751175   1.517312   2.156690
    28  H    2.773580   3.112847   2.517850   2.156383   2.518844
    29  H    2.770038   2.554870   3.066275   2.156185   3.074951
    30  C    3.905312   4.204174   4.174118   2.541826   2.776624
    31  H    4.188276   4.390254   4.708203   2.766178   3.091216
    32  H    4.191160   4.736892   4.371799   2.766769   2.539771
    33  C    5.074508   5.205919   5.168553   3.894304   4.189623
    34  H    6.018684   6.197029   6.162825   4.720583   4.884139
    35  H    5.235577   5.430357   5.092062   4.219862   4.416406
    36  H    5.233547   5.128568   5.386379   4.219641   4.757796
                   26         27         28         29         30
    26  H    0.000000
    27  C    2.159707   0.000000
    28  H    3.076923   1.108680   0.000000
    29  H    2.524615   1.108600   1.761315   0.000000
    30  C    2.777983   1.518720   2.157407   2.157028   0.000000
    31  H    2.541027   2.151758   3.071171   2.516259   1.106802
    32  H    3.090237   2.151958   2.516743   3.071048   1.106887
    33  C    4.192070   2.532008   2.761272   2.760720   1.515977
    34  H    4.885884   3.497428   3.778186   3.777735   2.185125
    35  H    4.759935   2.803128   2.574224   3.122179   2.173766
    36  H    4.420296   2.803235   3.122961   2.573787   2.173674
                   31         32         33         34         35
    31  H    0.000000
    32  H    1.759444   0.000000
    33  C    2.161358   2.161330   0.000000
    34  H    2.516642   2.516385   1.101164   0.000000
    35  H    3.088593   2.533433   1.103378   1.777429   0.000000
    36  H    2.533159   3.088528   1.103365   1.777409   1.774207
                   36
    36  H    0.000000
 Stoichiometry    C12H24
 Framework group  C1[X(C12H24)]
 Deg. of freedom   102
 Full point group                 C1      NOp   1
 Largest Abelian subgroup         C1      NOp   1
 Largest concise Abelian subgroup C1      NOp   1
                         Standard orientation:                         
 ---------------------------------------------------------------------
 Center     Atomic      Atomic             Coordinates (Angstroms)
 Number     Number       Type             X           Y           Z
 ---------------------------------------------------------------------
      1          6           0        6.038219   -1.611932    0.002720
      2          1           0        6.162815   -1.716823   -1.088572
      3          1           0        5.603946   -2.557159    0.370644
      4          1           0        7.043281   -1.516803    0.442450
      5          6           0        5.149241   -0.431769    0.342010
      6          1           0        5.063854   -0.325372    1.440372
      7          1           0        5.618512    0.508235   -0.006381
      8          6           0        3.757438   -0.543084   -0.255488
      9          1           0        3.281989   -1.482320    0.092044
     10          1           0        3.836517   -0.647599   -1.356394
     11          6           0        2.855716    0.631249    0.076283
     12          1           0        3.327241    1.570163   -0.276234
     13          1           0        2.772510    0.740545    1.175087
     14          6           0        1.459081    0.511210   -0.521105
     15          1           0        0.974547   -0.413579   -0.154654
     16          1           0        1.556619    0.388202   -1.618596
     17          6           0        0.590876    1.687390   -0.220237
     18          1           0        0.955828    2.664334   -0.577035
     19          6           0       -0.556711    1.649827    0.461594
     20          1           0       -0.517625    1.755388    1.558062
     21          6           0       -1.910477    1.440711   -0.131103
     22          1           0       -1.831374    1.390900   -1.233626
     23          1           0       -2.554772    2.316033    0.087589
     24          6           0       -2.604591    0.188957    0.391571
     25          1           0       -2.660711    0.233939    1.497459
     26          1           0       -1.976937   -0.695128    0.166441
     27          6           0       -3.996641   -0.011971   -0.177692
     28          1           0       -4.619903    0.876093    0.050469
     29          1           0       -3.940108   -0.050643   -1.284173
     30          6           0       -4.691378   -1.261228    0.335347
     31          1           0       -4.063730   -2.143770    0.106903
     32          1           0       -4.743377   -1.218527    1.440187
     33          6           0       -6.080362   -1.448981   -0.242283
     34          1           0       -6.571025   -2.358097    0.138928
     35          1           0       -6.732933   -0.593382    0.001736
     36          1           0       -6.047631   -1.526899   -1.342407
 ---------------------------------------------------------------------
 Rotational constants (GHZ):      1.8873794      0.1969233      0.1828289
 Standard basis: STO-3G (5D, 7F)
 There are    84 symmetry adapted cartesian basis functions of A   symmetry.
 There are    84 symmetry adapted basis functions of A   symmetry.
    84 basis functions,   252 primitive gaussians,    84 cartesian basis functions
    48 alpha electrons       48 beta electrons
       nuclear repulsion energy       661.5262104584 Hartrees.
 NAtoms=   36 NActive=   36 NUniq=   36 SFac= 1.00D+00 NAtFMM=   60 NAOKFM=F Big=F
 Integral buffers will be    131072 words long.
 Raffenetti 1 integral format.
 Two-electron integral symmetry is turned on.
 One-electron integrals computed using PRISM.
 NBasis=    84 RedAO= T EigKep=  1.87D-01  NBF=    84
 NBsUse=    84 1.00D-06 EigRej= -1.00D+00 NBFU=    84
 ExpMin= 1.69D-01 ExpMax= 7.16D+01 ExpMxC= 7.16D+01 IAcc=1 IRadAn=         1 AccDes= 0.00D+00
 Harris functional with IExCor=  205 and IRadAn=       1 diagonalized for initial guess.
 HarFok:  IExCor=  205 AccDes= 0.00D+00 IRadAn=         1 IDoV= 1 UseB2=F ITyADJ=14
 ICtDFT=  3500011 ScaDFX=  1.000000  1.000000  1.000000  1.000000
 FoFCou: FMM=F IPFlag=           0 FMFlag=      100000 FMFlg1=           0
         NFxFlg=           0 DoJE=T BraDBF=F KetDBF=T FulRan=T
         wScrn=  0.000000 ICntrl=     500 IOpCl=  0 I1Cent=   200000004 NGrid=           0
         NMat0=    1 NMatS0=      1 NMatT0=    0 NMatD0=    1 NMtDS0=    0 NMtDT0=    0
 Petite list used in FoFCou.
 Keep R1 ints in memory in canonical form, NReq=7310288.
 Requested convergence on RMS density matrix=1.00D-08 within 128 cycles.
 Requested convergence on MAX density matrix=1.00D-06.
 Requested convergence on             energy=1.00D-06.
 No special actions if energy rises.
 SCF Done:  E(RHF) =  -462.660067342     A.U. after   16 cycles
            NFock= 16  Conv=0.56D-08     -V/T= 2.0078

 **********************************************************************

            Population analysis using the SCF density.

 **********************************************************************

 Orbital symmetries:
       Occupied  (A) (A) (A) (A) (A) (A) (A) (A) (A) (A) (A) (A)
                 (A) (A) (A) (A) (A) (A) (A) (A) (A) (A) (A) (A)
                 (A) (A) (A) (A) (A) (A) (A) (A) (A) (A) (A) (A)
                 (A) (A) (A) (A) (A) (A) (A) (A) (A) (A) (A) (A)
       Virtual   (A) (A) (A) (A) (A) (A) (A) (A) (A) (A) (A) (A)
                 (A) (A) (A) (A) (A) (A) (A) (A) (A) (A) (A) (A)
                 (A) (A) (A) (A) (A) (A) (A) (A) (A) (A) (A) (A)
 The electronic state is 1-A.
 Alpha  occ. eigenvalues --  -11.04410 -11.04244 -11.04159 -11.04117 -11.04066
 Alpha  occ. eigenvalues --  -11.03784 -11.03506 -11.03320 -11.03206 -11.03202
 Alpha  occ. eigenvalues --  -10.98930 -10.98813  -1.05560  -1.04464  -1.01478
 Alpha  occ. eigenvalues --   -0.98474  -0.94182  -0.89289  -0.84808  -0.79097
 Alpha  occ. eigenvalues --   -0.76578  -0.75176  -0.74734  -0.67929  -0.62149
 Alpha  occ. eigenvalues --   -0.61435  -0.58257  -0.56838  -0.56167  -0.54909
 Alpha  occ. eigenvalues --   -0.53696  -0.52783  -0.51677  -0.50800  -0.50142
 Alpha  occ. eigenvalues --   -0.48234  -0.47182  -0.45966  -0.45686  -0.43784
 Alpha  occ. eigenvalues --   -0.43109  -0.42716  -0.42190  -0.41871  -0.41492
 Alpha  occ. eigenvalues --   -0.41436  -0.40266  -0.14822
 Alpha virt. eigenvalues --    0.17556   0.57484   0.57719   0.58279   0.58651
 Alpha virt. eigenvalues --    0.62819   0.63121   0.66148   0.66617   0.67112
 Alpha virt. eigenvalues --    0.67390   0.68492   0.69058   0.69474   0.70547
 Alpha virt. eigenvalues --    0.71812   0.72801   0.73726   0.74057   0.74408
 Alpha virt. eigenvalues --    0.75197   0.75592   0.76249   0.76505   0.77811
 Alpha virt. eigenvalues --    0.78219   0.78782   0.79964   0.80437   0.80559
 Alpha virt. eigenvalues --    0.81185   0.81703   0.82809   0.85859   0.86483
 Alpha virt. eigenvalues --    1.06717
          Condensed to atoms (all electrons):
               1          2          3          4          5          6
     1  C    4.725924   0.380238   0.380238   0.381657   0.368803  -0.022143
     2  H    0.380238   0.633271  -0.021849  -0.021513  -0.021012   0.001878
     3  H    0.380238  -0.021849   0.633303  -0.021514  -0.021018  -0.002226
     4  H    0.381657  -0.021513  -0.021514   0.628414  -0.019406  -0.002127
     5  C    0.368803  -0.021012  -0.021018  -0.019406   4.725346   0.379349
     6  H   -0.022143   0.001878  -0.002226  -0.002127   0.379349   0.645578
     7  H   -0.022153  -0.002222   0.001879  -0.002129   0.379332  -0.023842
     8  C   -0.022815  -0.002132  -0.002131   0.001239   0.368028  -0.023067
     9  H   -0.002221  -0.000006   0.000394   0.000010  -0.022646  -0.002345
    10  H   -0.002207   0.000394  -0.000006   0.000009  -0.022650   0.001942
    11  C    0.000713   0.000007   0.000008  -0.000015  -0.021522  -0.002196
    12  H    0.000007   0.000002  -0.000001  -0.000000  -0.002164   0.000002
    13  H    0.000007  -0.000001   0.000002  -0.000000  -0.002170   0.000385
    14  C   -0.000004  -0.000000  -0.000000   0.000000   0.000678   0.000006
    15  H   -0.000000   0.000000  -0.000000   0.000000   0.000005   0.000002
    16  H   -0.000000  -0.000000   0.000000   0.000000   0.000014  -0.000001
    17  C    0.000000   0.000000   0.000000  -0.000000  -0.000004  -0.000000
    18  H    0.000000   0.000000  -0.000000  -0.000000  -0.000000  -0.000000
    19  C    0.000000  -0.000000   0.000000  -0.000000  -0.000000  -0.000000
    20  H    0.000000   0.000000   0.000000  -0.000000  -0.000000   0.000000
    21  C   -0.000000  -0.000000  -0.000000   0.000000   0.000000  -0.000000
    22  H    0.000000   0.000000   0.000000  -0.000000  -0.000000  -0.000000
    23  H    0.000000   0.000000   0.000000  -0.000000  -0.000000  -0.000000
    24  C   -0.000000  -0.000000  -0.000000   0.000000   0.000000   0.000000
    25  H   -0.000000   0.000000  -0.000000   0.000000   0.000000   0.000000
    26  H    0.000000   0.000000   0.000000  -0.000000  -0.000000  -0.000000
    27  C    0.000000   0.000000   0.000000  -0.000000  -0.000000  -0.000000
    28  H    0.000000  -0.000000   0.000000   0.000000  -0.000000  -0.000000
    29  H    0.000000   0.000000   0.000000  -0.000000  -0.000000  -0.000000
    30  C    0.000000  -0.000000  -0.000000   0.000000   0.000000   0.000000
    31  H   -0.000000  -0.000000  -0.000000   0.000000   0.000000   0.000000
    32  H   -0.000000  -0.000000  -0.000000   0.000000   0.000000   0.000000
    33  C    0.000000   0.000000   0.000000   0.000000   0.000000   0.000000
    34  H    0.000000   0.000000   0.000000   0.000000   0.000000   0.000000
    35  H    0.000000   0.000000   0.000000   0.000000   0.000000  -0.000000
    36  H    0.000000   0.000000   0.000000   0.000000   0.000000  -0.000000
               7          8          9         10         11         12
     1  C   -0.022153  -0.022815  -0.002221  -0.002207   0.000713   0.000007
     2  H   -0.002222  -0.002132  -0.000006   0.000394   0.000007   0.000002
     3  H    0.001879  -0.002131   0.000394  -0.000006   0.000008  -0.000001
     4  H   -0.002129   0.001239   0.000010   0.000009  -0.000015  -0.000000
     5  C    0.379332   0.368028  -0.022646  -0.022650  -0.021522  -0.002164
     6  H   -0.023842  -0.023067  -0.002345   0.001942  -0.002196   0.000002
     7  H    0.645648  -0.023069   0.001945  -0.002345  -0.002189   0.000393
     8  C   -0.023069   4.737507   0.378322   0.378503   0.369041  -0.022615
     9  H    0.001945   0.378322   0.648195  -0.023777  -0.022830   0.001931
    10  H   -0.002345   0.378503  -0.023777   0.647508  -0.022821  -0.002342
    11  C   -0.002189   0.369041  -0.022830  -0.022821   4.737977   0.378447
    12  H    0.000393  -0.022615   0.001931  -0.002342   0.378447   0.644348
    13  H    0.000003  -0.022493  -0.002271   0.001922   0.377882  -0.023628
    14  C    0.000006  -0.021184  -0.002153  -0.002183   0.366426  -0.022495
    15  H   -0.000001  -0.001951   0.000389   0.000000  -0.022910   0.001889
    16  H    0.000002  -0.002651  -0.000005   0.000441  -0.024080  -0.002193
    17  C   -0.000000   0.000669   0.000006   0.000007  -0.022126  -0.002220
    18  H   -0.000000   0.000021  -0.000000   0.000001  -0.003307   0.000436
    19  C    0.000000   0.000001   0.000001  -0.000000  -0.000143   0.000011
    20  H   -0.000000   0.000001   0.000000   0.000000  -0.000023  -0.000002
    21  C   -0.000000  -0.000000  -0.000000   0.000000  -0.000001  -0.000000
    22  H   -0.000000   0.000000   0.000000   0.000000  -0.000001  -0.000000
    23  H   -0.000000   0.000000   0.000000  -0.000000  -0.000000   0.000000
    24  C    0.000000  -0.000000  -0.000000  -0.000000   0.000001  -0.000000
    25  H    0.000000  -0.000000   0.000000  -0.000000   0.000000   0.000000
    26  H   -0.000000   0.000000   0.000000   0.000000  -0.000000  -0.000000
    27  C   -0.000000   0.000000   0.000000   0.000000  -0.000000   0.000000
    28  H    0.000000   0.000000  -0.000000  -0.000000   0.000000  -0.000000
    29  H   -0.000000   0.000000   0.000000   0.000000  -0.000000   0.000000
    30  C    0.000000  -0.000000  -0.000000  -0.000000   0.000000   0.000000
    31  H    0.000000  -0.000000  -0.000000  -0.000000   0.000000  -0.000000
    32  H    0.000000  -0.000000  -0.000000  -0.000000   0.000000  -0.000000
    33  C    0.000000   0.000000   0.000000   0.000000  -0.000000   0.000000
    34  H    0.000000  -0.000000  -0.000000  -0.000000   0.000000  -0.000000
    35  H    0.000000   0.000000   0.000000   0.000000  -0.000000   0.000000
    36  H    0.000000   0.000000   0.000000   0.000000  -0.000000  -0.000000
              13         14         15         16         17         18
     1  C    0.000007  -0.000004  -0.000000  -0.000000   0.000000   0.000000
     2  H   -0.000001  -0.000000   0.000000  -0.000000   0.000000   0.000000
     3  H    0.000002  -0.000000  -0.000000   0.000000   0.000000  -0.000000
     4  H   -0.000000   0.000000   0.000000   0.000000  -0.000000  -0.000000
     5  C   -0.002170   0.000678   0.000005   0.000014  -0.000004  -0.000000
     6  H    0.000385   0.000006   0.000002  -0.000001  -0.000000  -0.000000
     7  H    0.000003   0.000006  -0.000001   0.000002  -0.000000  -0.000000
     8  C   -0.022493  -0.021184  -0.001951  -0.002651   0.000669   0.000021
     9  H   -0.002271  -0.002153   0.000389  -0.000005   0.000006  -0.000000
    10  H    0.001922  -0.002183   0.000000   0.000441   0.000007   0.000001
    11  C    0.377882   0.366426  -0.022910  -0.024080  -0.022126  -0.003307
    12  H   -0.023628  -0.022495   0.001889  -0.002193  -0.002220   0.000436
    13  H    0.645743  -0.023213  -0.002399   0.002019  -0.001252   0.000061
    14  C   -0.023213   4.740095   0.379894   0.365597   0.371870  -0.027621
    15  H   -0.002399   0.379894   0.641324  -0.022329  -0.022611   0.001658
    16  H    0.002019   0.365597  -0.022329   0.664510  -0.026173   0.000719
    17  C   -0.001252   0.371870  -0.022611  -0.026173   4.961640   0.370069
    18  H    0.000061  -0.027621   0.001658   0.000719   0.370069   0.644235
    19  C    0.000101  -0.029758  -0.004521   0.002023   0.497012  -0.033711
    20  H   -0.000025   0.002031   0.000056  -0.000057  -0.033640  -0.001744
    21  C    0.000001  -0.000906   0.000129   0.000047  -0.029302   0.002002
    22  H   -0.000000   0.000106   0.000029  -0.000012  -0.004488   0.000070
    23  H    0.000000  -0.000006  -0.000004   0.000006   0.000022  -0.000041
    24  C   -0.000000   0.000014  -0.000033  -0.000012   0.001259  -0.000027
    25  H   -0.000000   0.000001  -0.000001  -0.000000   0.000013  -0.000001
    26  H    0.000000  -0.000001   0.000001   0.000001   0.000041  -0.000003
    27  C    0.000000  -0.000000   0.000000   0.000000  -0.000011   0.000000
    28  H    0.000000  -0.000000   0.000000   0.000000  -0.000000   0.000000
    29  H    0.000000  -0.000000  -0.000000   0.000000  -0.000001   0.000000
    30  C   -0.000000   0.000000  -0.000000  -0.000000   0.000000  -0.000000
    31  H   -0.000000  -0.000000  -0.000000  -0.000000   0.000000  -0.000000
    32  H   -0.000000   0.000000  -0.000000  -0.000000   0.000000  -0.000000
    33  C    0.000000  -0.000000   0.000000   0.000000  -0.000000   0.000000
    34  H   -0.000000   0.000000  -0.000000  -0.000000   0.000000  -0.000000
    35  H    0.000000  -0.000000   0.000000   0.000000  -0.000000   0.000000
    36  H    0.000000  -0.000000   0.000000   0.000000  -0.000000   0.000000
              19         20         21         22         23         24
     1  C    0.000000   0.000000  -0.000000   0.000000   0.000000  -0.000000
     2  H   -0.000000   0.000000  -0.000000   0.000000   0.000000  -0.000000
     3  H    0.000000   0.000000  -0.000000   0.000000   0.000000  -0.000000
     4  H   -0.000000  -0.000000   0.000000  -0.000000  -0.000000   0.000000
     5  C   -0.000000  -0.000000   0.000000  -0.000000  -0.000000   0.000000
     6  H   -0.000000   0.000000  -0.000000  -0.000000  -0.000000   0.000000
     7  H    0.000000  -0.000000  -0.000000  -0.000000  -0.000000   0.000000
     8  C    0.000001   0.000001  -0.000000   0.000000   0.000000  -0.000000
     9  H    0.000001   0.000000  -0.000000   0.000000   0.000000  -0.000000
    10  H   -0.000000   0.000000   0.000000   0.000000  -0.000000  -0.000000
    11  C   -0.000143  -0.000023  -0.000001  -0.000001  -0.000000   0.000001
    12  H    0.000011  -0.000002  -0.000000  -0.000000   0.000000  -0.000000
    13  H    0.000101  -0.000025   0.000001  -0.000000   0.000000  -0.000000
    14  C   -0.029758   0.002031  -0.000906   0.000106  -0.000006   0.000014
    15  H   -0.004521   0.000056   0.000129   0.000029  -0.000004  -0.000033
    16  H    0.002023  -0.000057   0.000047  -0.000012   0.000006  -0.000012
    17  C    0.497012  -0.033640  -0.029302  -0.004488   0.000022   0.001259
    18  H   -0.033711  -0.001744   0.002002   0.000070  -0.000041  -0.000027
    19  C    4.963179   0.371081   0.371387  -0.022363  -0.022172  -0.025480
    20  H    0.371081   0.643486  -0.027715   0.001660  -0.003766   0.000321
    21  C    0.371387  -0.027715   4.737158   0.379947   0.380642   0.353178
    22  H   -0.022363   0.001660   0.379947   0.640607  -0.024028  -0.021548
    23  H   -0.022172  -0.003766   0.380642  -0.024028   0.633533  -0.023928
    24  C   -0.025480   0.000321   0.353178  -0.021548  -0.023928   4.751166
    25  H   -0.002568   0.000448  -0.022367   0.001882  -0.002339   0.379054
    26  H   -0.002600  -0.000019  -0.022409  -0.002420   0.001880   0.379873
    27  C    0.000803  -0.000023  -0.022029  -0.002033  -0.002114   0.366998
    28  H    0.000007   0.000001  -0.002248  -0.000000   0.000465  -0.022749
    29  H    0.000009  -0.000001  -0.002244   0.000368   0.000012  -0.022782
    30  C   -0.000006   0.000000   0.000705   0.000006   0.000003  -0.021728
    31  H   -0.000000   0.000000   0.000007   0.000002  -0.000001  -0.002218
    32  H   -0.000000  -0.000000   0.000007  -0.000001   0.000002  -0.002209
    33  C    0.000000  -0.000000  -0.000005  -0.000000  -0.000000   0.000720
    34  H   -0.000000   0.000000   0.000000   0.000000   0.000000  -0.000015
    35  H    0.000000  -0.000000  -0.000000   0.000000  -0.000000   0.000008
    36  H    0.000000  -0.000000  -0.000000  -0.000000   0.000000   0.000008
              25         26         27         28         29         30
     1  C   -0.000000   0.000000   0.000000   0.000000   0.000000   0.000000
     2  H    0.000000   0.000000   0.000000  -0.000000   0.000000  -0.000000
     3  H   -0.000000   0.000000   0.000000   0.000000   0.000000  -0.000000
     4  H    0.000000  -0.000000  -0.000000   0.000000  -0.000000   0.000000
     5  C    0.000000  -0.000000  -0.000000  -0.000000  -0.000000   0.000000
     6  H    0.000000  -0.000000  -0.000000  -0.000000  -0.000000   0.000000
     7  H    0.000000  -0.000000  -0.000000   0.000000  -0.000000   0.000000
     8  C   -0.000000   0.000000   0.000000   0.000000   0.000000  -0.000000
     9  H    0.000000   0.000000   0.000000  -0.000000   0.000000  -0.000000
    10  H   -0.000000   0.000000   0.000000  -0.000000   0.000000  -0.000000
    11  C    0.000000  -0.000000  -0.000000   0.000000  -0.000000   0.000000
    12  H    0.000000  -0.000000   0.000000  -0.000000   0.000000   0.000000
    13  H   -0.000000   0.000000   0.000000   0.000000   0.000000  -0.000000
    14  C    0.000001  -0.000001  -0.000000  -0.000000  -0.000000   0.000000
    15  H   -0.000001   0.000001   0.000000   0.000000  -0.000000  -0.000000
    16  H   -0.000000   0.000001   0.000000   0.000000   0.000000  -0.000000
    17  C    0.000013   0.000041  -0.000011  -0.000000  -0.000001   0.000000
    18  H   -0.000001  -0.000003   0.000000   0.000000   0.000000  -0.000000
    19  C   -0.002568  -0.002600   0.000803   0.000007   0.000009  -0.000006
    20  H    0.000448  -0.000019  -0.000023   0.000001  -0.000001   0.000000
    21  C   -0.022367  -0.022409  -0.022029  -0.002248  -0.002244   0.000705
    22  H    0.001882  -0.002420  -0.002033  -0.000000   0.000368   0.000006
    23  H   -0.002339   0.001880  -0.002114   0.000465   0.000012   0.000003
    24  C    0.379054   0.379873   0.366998  -0.022749  -0.022782  -0.021728
    25  H    0.651722  -0.024042  -0.022967  -0.002341   0.001934  -0.002142
    26  H   -0.024042   0.650022  -0.022787   0.001924  -0.002288  -0.002138
    27  C   -0.022967  -0.022787   4.742956   0.378363   0.378480   0.367620
    28  H   -0.002341   0.001924   0.378363   0.652385  -0.023980  -0.022802
    29  H    0.001934  -0.002288   0.378480  -0.023980   0.651608  -0.022831
    30  C   -0.002142  -0.002138   0.367620  -0.022802  -0.022831   4.726828
    31  H    0.000005   0.000389  -0.023010   0.001946  -0.002347   0.379351
    32  H    0.000392   0.000005  -0.023014  -0.002345   0.001947   0.379301
    33  C    0.000006   0.000006  -0.022901  -0.002208  -0.002212   0.368622
    34  H   -0.000000  -0.000000   0.001243   0.000009   0.000009  -0.019443
    35  H    0.000002  -0.000001  -0.002139   0.000393  -0.000005  -0.020993
    36  H   -0.000001   0.000002  -0.002136  -0.000005   0.000393  -0.020995
              31         32         33         34         35         36
     1  C   -0.000000  -0.000000   0.000000   0.000000   0.000000   0.000000
     2  H   -0.000000  -0.000000   0.000000   0.000000   0.000000   0.000000
     3  H   -0.000000  -0.000000   0.000000   0.000000   0.000000   0.000000
     4  H    0.000000   0.000000   0.000000   0.000000   0.000000   0.000000
     5  C    0.000000   0.000000   0.000000   0.000000   0.000000   0.000000
     6  H    0.000000   0.000000   0.000000   0.000000  -0.000000  -0.000000
     7  H    0.000000   0.000000   0.000000   0.000000   0.000000   0.000000
     8  C   -0.000000  -0.000000   0.000000  -0.000000   0.000000   0.000000
     9  H   -0.000000  -0.000000   0.000000  -0.000000   0.000000   0.000000
    10  H   -0.000000  -0.000000   0.000000  -0.000000   0.000000   0.000000
    11  C    0.000000   0.000000  -0.000000   0.000000  -0.000000  -0.000000
    12  H   -0.000000  -0.000000   0.000000  -0.000000   0.000000  -0.000000
    13  H   -0.000000  -0.000000   0.000000  -0.000000   0.000000   0.000000
    14  C   -0.000000   0.000000  -0.000000   0.000000  -0.000000  -0.000000
    15  H   -0.000000  -0.000000   0.000000  -0.000000   0.000000   0.000000
    16  H   -0.000000  -0.000000   0.000000  -0.000000   0.000000   0.000000
    17  C    0.000000   0.000000  -0.000000   0.000000  -0.000000  -0.000000
    18  H   -0.000000  -0.000000   0.000000  -0.000000   0.000000   0.000000
    19  C   -0.000000  -0.000000   0.000000  -0.000000   0.000000   0.000000
    20  H    0.000000  -0.000000  -0.000000   0.000000  -0.000000  -0.000000
    21  C    0.000007   0.000007  -0.000005   0.000000  -0.000000  -0.000000
    22  H    0.000002  -0.000001  -0.000000   0.000000   0.000000  -0.000000
    23  H   -0.000001   0.000002  -0.000000   0.000000  -0.000000   0.000000
    24  C   -0.002218  -0.002209   0.000720  -0.000015   0.000008   0.000008
    25  H    0.000005   0.000392   0.000006  -0.000000   0.000002  -0.000001
    26  H    0.000389   0.000005   0.000006  -0.000000  -0.000001   0.000002
    27  C   -0.023010  -0.023014  -0.022901   0.001243  -0.002139  -0.002136
    28  H    0.001946  -0.002345  -0.002208   0.000009   0.000393  -0.000005
    29  H   -0.002347   0.001947  -0.002212   0.000009  -0.000005   0.000393
    30  C    0.379351   0.379301   0.368622  -0.019443  -0.020993  -0.020995
    31  H    0.647113  -0.023901  -0.022234  -0.002123   0.001881  -0.002226
    32  H   -0.023901   0.647335  -0.022244  -0.002126  -0.002222   0.001881
    33  C   -0.022234  -0.022244   4.726633   0.381513   0.380221   0.380227
    34  H   -0.002123  -0.002126   0.381513   0.629993  -0.021580  -0.021577
    35  H    0.001881  -0.002222   0.380221  -0.021580   0.634260  -0.021881
    36  H   -0.002226   0.001881   0.380227  -0.021577  -0.021881   0.634178
 Mulliken charges:
               1
     1  C   -0.166045
     2  H    0.052943
     3  H    0.052921
     4  H    0.055375
     5  C   -0.088962
     6  H    0.048805
     7  H    0.048744
     8  C   -0.089223
     9  H    0.047062
    10  H    0.047604
    11  C   -0.086337
    12  H    0.050194
    13  H    0.049326
    14  C   -0.097198
    15  H    0.051383
    16  H    0.042135
    17  C   -0.060779
    18  H    0.047187
    19  C   -0.062292
    20  H    0.047933
    21  C   -0.095982
    22  H    0.052217
    23  H    0.061838
    24  C   -0.089871
    25  H    0.043307
    26  H    0.044564
    27  C   -0.091299
    28  H    0.043183
    29  H    0.043929
    30  C   -0.089359
    31  H    0.047365
    32  H    0.047192
    33  C   -0.166145
    34  H    0.054097
    35  H    0.052057
    36  H    0.052133
 Sum of Mulliken charges =  -0.00000
 Mulliken charges with hydrogens summed into heavy atoms:
               1
     1  C   -0.004806
     5  C    0.008586
     8  C    0.005443
    11  C    0.013182
    14  C   -0.003680
    17  C   -0.013593
    19  C   -0.014359
    21  C    0.018073
    24  C   -0.001999
    27  C   -0.004187
    30  C    0.005199
    33  C   -0.007859
 Electronic spatial extent (au):  <R**2>=           6087.8487
 Charge=             -0.0000 electrons
 Dipole moment (field-independent basis, Debye):
    X=              0.2506    Y=             -0.0730    Z=             -0.0060  Tot=              0.2610
 Quadrupole moment (field-independent basis, Debye-Ang):
   XX=            -75.8472   YY=            -76.2175   ZZ=            -75.0740
   XY=             -0.5220   XZ=             -0.3632   YZ=             -0.4540
 Traceless Quadrupole moment (field-independent basis, Debye-Ang):
   XX=             -0.1343   YY=             -0.5046   ZZ=              0.6389
   XY=             -0.5220   XZ=             -0.3632   YZ=             -0.4540
 Octapole moment (field-independent basis, Debye-Ang**2):
  XXX=              8.7465  YYY=             -0.8249  ZZZ=              0.0074  XYY=             -1.5344
  XXY=              7.4359  XXZ=              1.4032  XZZ=              0.4311  YZZ=              0.2752
  YYZ=             -1.1016  XYZ=             -1.3793
 Hexadecapole moment (field-independent basis, Debye-Ang**3):
 XXXX=          -7179.1648 YYYY=           -729.3964 ZZZZ=           -182.0123 XXXY=             -7.4960
 XXXZ=            -13.2874 YYYX=              3.7169 YYYZ=             -7.6256 ZZZX=             -0.4373
 ZZZY=              2.5510 XXYY=          -1308.4155 XXZZ=          -1209.5304 YYZZ=           -155.0681
 XXYZ=             -3.9958 YYXZ=             -2.4221 ZZXY=             -0.2425
 N-N= 6.615262104584D+02 E-N=-2.398760306907D+03  KE= 4.590903786550D+02
 1\1\GINC-CN0161\SP\RHF\STO-3G\C12H24\GRAHA682\04-Dec-2017\0\\# hf/sto-
 3g geom=connectivity\\Title Card Required\\0,1\C,0,-6.854443,-0.134877
 ,-0.168414\H,0,-7.040212,-0.818328,0.677653\H,0,-6.884443,-0.743683,-1
 .088126\H,0,-7.697052,0.572652,-0.212848\C,0,-5.520363,0.56989,-0.0210
 4\H,0,-5.368713,1.273324,-0.861988\H,0,-5.523451,1.199843,0.889097\C,0
 ,-4.344023,-0.388597,0.042497\H,0,-4.335099,-1.020835,-0.868101\H,0,-4
 .48926,-1.094591,0.884904\C,0,-3.001393,0.302765,0.189464\H,0,-3.00708
 7,0.930311,1.102873\H,0,-2.850369,1.009328,-0.649702\C,0,-1.824677,-0.
 663624,0.246928\H,0,-1.800656,-1.277687,-0.673205\H,0,-1.994641,-1.373
 719,1.081199\C,0,-0.511885,0.023005,0.428088\H,0,-0.405457,0.634962,1.
 338635\C,0,0.511885,-0.023005,-0.428088\H,0,0.55207847,0.72526893,-1.2
 3641018\C,0,1.61027825,-1.03343942,-0.41209628\H,0,1.48966632,-1.70176
 578,0.46145264\H,0,2.58550515,-0.52489571,-0.27264532\C,0,1.67759586,-
 1.86289879,-1.68855069\H,0,1.77561103,-1.18736047,-2.5615933\H,0,0.713
 09741,-2.38772645,-1.83186069\C,0,2.81442083,-2.86778759,-1.69651971\H
 ,0,3.77687294,-2.33668432,-1.55234565\H,0,2.7188701,-3.53907119,-0.819
 45549\C,0,2.88318074,-3.70150826,-2.96407324\H,0,1.91930056,-4.2272411
 4,-3.10389664\H,0,2.97646356,-3.02666936,-3.8364782\C,0,4.02300686,-4.
 70097658,-2.95739394\H,0,4.05993674,-5.29739106,-3.88231964\H,0,4.9973
 4815,-4.1942325,-2.8510319\H,0,3.9311354,-5.4050579,-2.1128562\\Versio
 n=ES64L-G09RevE.01\State=1-A\HF=-462.6600673\RMSD=5.598e-09\Dipole=-0.
 1009477,0.0151953,0.0112228\Quadrupole=0.1613191,-0.6424899,0.4811707,
 0.1445439,-0.0118741,-0.4115827\PG=C01 [X(C12H24)]\\@


 FAULTILY FAULTLESS, ICILY REGULAR, SPLENDIDLY NULL...
           MAUDE BY TENNYSON
 Job cpu time:       0 days  0 hours  0 minutes 47.9 seconds.
 File lengths (MBytes):  RWF=      5 Int=      0 D2E=      0 Chk=      2 Scr=      1
 Normal termination of Gaussian 09 at Mon Dec  4 11:08:01 2017.
47.27user 0.60system 0:02.41elapsed 1980%CPU (0avgtext+0avgdata 428384maxresident)k
0inputs+16640outputs (0major+24918minor)pagefaults 0swaps
