 Entering Gaussian System, Link 0=g09
 Initial command:
 /panfs/roc/msisoft/gaussian/g09.e01_mesabi/g09/l1.exe "/scratch/graha682/4575983.mesabim3.msi.umn.edu/Gau-8646.inp" -scrdir="/scratch/graha682/4575983.mesabim3.msi.umn.edu/"
 Entering Link 1 = /panfs/roc/msisoft/gaussian/g09.e01_mesabi/g09/l1.exe PID=      8647.
  
 Copyright (c) 1988,1990,1992,1993,1995,1998,2003,2009,2015,
            Gaussian, Inc.  All Rights Reserved.
  
 This is part of the Gaussian(R) 09 program.  It is based on
 the Gaussian(R) 03 system (copyright 2003, Gaussian, Inc.),
 the Gaussian(R) 98 system (copyright 1998, Gaussian, Inc.),
 the Gaussian(R) 94 system (copyright 1995, Gaussian, Inc.),
 the Gaussian 92(TM) system (copyright 1992, Gaussian, Inc.),
 the Gaussian 90(TM) system (copyright 1990, Gaussian, Inc.),
 the Gaussian 88(TM) system (copyright 1988, Gaussian, Inc.),
 the Gaussian 86(TM) system (copyright 1986, Carnegie Mellon
 University), and the Gaussian 82(TM) system (copyright 1983,
 Carnegie Mellon University). Gaussian is a federally registered
 trademark of Gaussian, Inc.
  
 This software contains proprietary and confidential information,
 including trade secrets, belonging to Gaussian, Inc.
  
 This software is provided under written license and may be
 used, copied, transmitted, or stored only in accord with that
 written license.
  
 The following legend is applicable only to US Government
 contracts under FAR:
  
                    RESTRICTED RIGHTS LEGEND
  
 Use, reproduction and disclosure by the US Government is
 subject to restrictions as set forth in subparagraphs (a)
 and (c) of the Commercial Computer Software - Restricted
 Rights clause in FAR 52.227-19.
  
 Gaussian, Inc.
 340 Quinnipiac St., Bldg. 40, Wallingford CT 06492
  
  
 ---------------------------------------------------------------
 Warning -- This program may not be used in any manner that
 competes with the business of Gaussian, Inc. or will provide
 assistance to any competitor of Gaussian, Inc.  The licensee
 of this program is prohibited from giving any competitor of
 Gaussian, Inc. access to this program.  By using this program,
 the user acknowledges that Gaussian, Inc. is engaged in the
 business of creating and licensing software in the field of
 computational chemistry and represents and warrants to the
 licensee that it is not a competitor of Gaussian, Inc. and that
 it will not use this program in any manner prohibited above.
 ---------------------------------------------------------------
  

 Cite this work as:
 Gaussian 09, Revision E.01,
 M. J. Frisch, G. W. Trucks, H. B. Schlegel, G. E. Scuseria, 
 M. A. Robb, J. R. Cheeseman, G. Scalmani, V. Barone, B. Mennucci, 
 G. A. Petersson, H. Nakatsuji, M. Caricato, X. Li, H. P. Hratchian, 
 A. F. Izmaylov, J. Bloino, G. Zheng, J. L. Sonnenberg, M. Hada, 
 M. Ehara, K. Toyota, R. Fukuda, J. Hasegawa, M. Ishida, T. Nakajima, 
 Y. Honda, O. Kitao, H. Nakai, T. Vreven, J. A. Montgomery, Jr., 
 J. E. Peralta, F. Ogliaro, M. Bearpark, J. J. Heyd, E. Brothers, 
 K. N. Kudin, V. N. Staroverov, T. Keith, R. Kobayashi, J. Normand, 
 K. Raghavachari, A. Rendell, J. C. Burant, S. S. Iyengar, J. Tomasi, 
 M. Cossi, N. Rega, J. M. Millam, M. Klene, J. E. Knox, J. B. Cross, 
 V. Bakken, C. Adamo, J. Jaramillo, R. Gomperts, R. E. Stratmann, 
 O. Yazyev, A. J. Austin, R. Cammi, C. Pomelli, J. W. Ochterski, 
 R. L. Martin, K. Morokuma, V. G. Zakrzewski, G. A. Voth, 
 P. Salvador, J. J. Dannenberg, S. Dapprich, A. D. Daniels, 
 O. Farkas, J. B. Foresman, J. V. Ortiz, J. Cioslowski, 
 and D. J. Fox, Gaussian, Inc., Wallingford CT, 2013.
 
 ******************************************
 Gaussian 09:  ES64L-G09RevE.01 30-Nov-2015
                 4-Dec-2017 
 ******************************************
 %LindaWorkers=in-cn0572
 %NProcShared=24
 Will use up to   24 processors via shared memory.
 %Mem=59800mb
 %chk=20171201_def2svp_m06_150c12h24.chk
 SetLPE:  input flags=" -workerwait 900 -opt "Tsnet.Node.lindarsharg: ssh " "
 SetLPE:    new flags=" -workerwait 900 -opt "Tsnet.Node.lindarsharg: ssh "  -nodelist 'in-cn0572'"
 Will use up to    1 processors via Linda.
 -----------------------------
 # hf/sto-3g geom=connectivity
 -----------------------------
 1/38=1,57=2/1;
 2/12=2,17=6,18=5,40=1/2;
 3/6=3,11=9,16=1,25=1,30=1/1,2,3;
 4//1;
 5/5=2,38=5/2;
 6/7=2,8=2,9=2,10=2,28=1/1;
 99/5=1,9=1/99;
 -------------------
 Title Card Required
 -------------------
 Symbolic Z-matrix:
 Charge =  0 Multiplicity = 1
 C                    -6.85444  -0.13488  -0.16841 
 H                    -7.04021  -0.81833   0.67765 
 H                    -6.88444  -0.74368  -1.08813 
 H                    -7.69705   0.57265  -0.21285 
 C                    -5.52036   0.56989  -0.02104 
 H                    -5.36871   1.27332  -0.86199 
 H                    -5.52345   1.19984   0.8891 
 C                    -4.34402  -0.3886    0.0425 
 H                    -4.3351   -1.02083  -0.8681 
 H                    -4.48926  -1.09459   0.8849 
 C                    -3.00139   0.30277   0.18946 
 H                    -3.00709   0.93031   1.10287 
 H                    -2.85037   1.00933  -0.6497 
 C                    -1.82468  -0.66362   0.24693 
 H                    -1.80066  -1.27769  -0.67321 
 H                    -1.99464  -1.37372   1.0812 
 C                    -0.51189   0.02301   0.42809 
 H                    -0.40546   0.63496   1.33864 
 C                     0.51189  -0.02301  -0.42809 
 H                     1.17216   0.85647  -0.50199 
 C                     0.83177  -1.16365  -1.336 
 H                     0.133    -1.99998  -1.14475 
 H                     1.84319  -1.55449  -1.10494 
 C                     0.7874   -0.78375  -2.81099 
 H                     1.472     0.0687   -2.99214 
 H                    -0.22327  -0.40464  -3.05808 
 C                     1.14741  -1.92782  -3.74036 
 H                     2.15962  -2.3032   -3.48798 
 H                     0.46597  -2.78218  -3.55403 
 C                     1.09942  -1.55669  -5.21225 
 H                     0.08779  -1.18066  -5.45764 
 H                     1.77971  -0.70232  -5.3924 
 C                     1.46071  -2.70932  -6.12828 
 H                     1.42166  -2.425    -7.19139 
 H                     2.47958  -3.07896  -5.92159 
 H                     0.77338  -3.56095  -5.98784 
 
                          Input orientation:                          
 ---------------------------------------------------------------------
 Center     Atomic      Atomic             Coordinates (Angstroms)
 Number     Number       Type             X           Y           Z
 ---------------------------------------------------------------------
      1          6           0       -6.854443   -0.134877   -0.168414
      2          1           0       -7.040212   -0.818328    0.677653
      3          1           0       -6.884443   -0.743683   -1.088126
      4          1           0       -7.697052    0.572652   -0.212848
      5          6           0       -5.520363    0.569890   -0.021040
      6          1           0       -5.368713    1.273324   -0.861988
      7          1           0       -5.523451    1.199843    0.889097
      8          6           0       -4.344023   -0.388597    0.042497
      9          1           0       -4.335099   -1.020835   -0.868101
     10          1           0       -4.489260   -1.094591    0.884904
     11          6           0       -3.001393    0.302765    0.189464
     12          1           0       -3.007087    0.930311    1.102873
     13          1           0       -2.850369    1.009328   -0.649702
     14          6           0       -1.824677   -0.663624    0.246928
     15          1           0       -1.800656   -1.277687   -0.673205
     16          1           0       -1.994641   -1.373719    1.081199
     17          6           0       -0.511885    0.023005    0.428088
     18          1           0       -0.405457    0.634962    1.338635
     19          6           0        0.511885   -0.023005   -0.428088
     20          1           0        1.172165    0.856474   -0.501995
     21          6           0        0.831767   -1.163649   -1.336002
     22          1           0        0.133003   -1.999978   -1.144748
     23          1           0        1.843191   -1.554494   -1.104935
     24          6           0        0.787404   -0.783754   -2.810987
     25          1           0        1.471999    0.068700   -2.992136
     26          1           0       -0.223266   -0.404640   -3.058084
     27          6           0        1.147406   -1.927825   -3.740361
     28          1           0        2.159615   -2.303198   -3.487977
     29          1           0        0.465965   -2.782176   -3.554035
     30          6           0        1.099425   -1.556694   -5.212254
     31          1           0        0.087794   -1.180661   -5.457636
     32          1           0        1.779708   -0.702316   -5.392404
     33          6           0        1.460710   -2.709321   -6.128283
     34          1           0        1.421660   -2.425000   -7.191391
     35          1           0        2.479575   -3.078960   -5.921585
     36          1           0        0.773377   -3.560945   -5.987837
 ---------------------------------------------------------------------
                    Distance matrix (angstroms):
                    1          2          3          4          5
     1  C    0.000000
     2  H    1.103379   0.000000
     3  H    1.103365   1.774207   0.000000
     4  H    1.101164   1.777430   1.777409   0.000000
     5  C    1.515977   2.173767   2.173674   2.185125   0.000000
     6  H    2.161358   3.088594   2.533159   2.516642   1.106802
     7  H    2.161330   2.533434   3.088528   2.516385   1.106887
     8  C    2.532008   2.803128   2.803235   3.497428   1.518720
     9  H    2.760720   3.122179   2.573787   3.777735   2.157028
    10  H    2.761272   2.574224   3.122961   3.778186   2.157407
    11  C    3.894304   4.219862   4.219641   4.720583   2.541826
    12  H    4.189623   4.416407   4.757796   4.884139   2.776624
    13  H    4.192070   4.759935   4.420296   4.885884   2.777983
    14  C    5.074508   5.235577   5.233547   6.018684   3.905312
    15  H    5.205919   5.430357   5.128568   6.197029   4.204174
    16  H    5.168553   5.092062   5.386379   6.162825   4.174118
    17  C    6.372502   6.587046   6.595166   7.234607   5.058226
    18  H    6.667328   6.824143   7.054579   7.455088   5.292940
    19  C    7.371752   7.673941   7.460610   8.233334   6.074967
    20  H    8.094472   8.464022   8.234864   8.878466   6.715905
    21  C    7.842159   8.132780   7.731605   8.775931   6.714450
    22  H    7.297687   7.494829   7.129238   8.294373   6.310903
    23  H    8.862349   9.090348   8.765232   9.815132   7.740140
    24  C    8.111847   8.569911   7.863021   8.976422   7.028804
    25  H    8.794571   9.311923   8.609027   9.594264   7.613917
    26  H    7.238471   7.784447   6.954636   8.056546   6.183250
    27  C    8.944442   9.369467   8.540909   9.844804   8.033123
    28  H    9.847556  10.207552   9.486114  10.777331   8.902603
    29  H    8.488757   8.837793   8.016524   9.436803   7.717158
    30  C    9.525015  10.074219   9.022836  10.339545   8.677134
    31  H    8.790005   9.411776   8.239882   9.549122   8.004525
    32  H   10.107453  10.707476   9.674504  10.874848   9.152109
    33  C   10.549387  11.052705   9.945275  11.385443   9.838039
    34  H   11.093275  11.666470  10.443563  11.867472  10.419932
    35  H   11.352995  11.801981  10.793548  12.226516  10.589124
    36  H   10.187604  10.630282   9.517686  11.053746   9.606125
                    6          7          8          9         10
     6  H    0.000000
     7  H    1.759444   0.000000
     8  C    2.151758   2.151958   0.000000
     9  H    2.516259   3.071048   1.108600   0.000000
    10  H    3.071171   2.516743   1.108680   1.761315   0.000000
    11  C    2.766178   2.766769   1.517312   2.156185   2.156383
    12  H    3.091216   2.539771   2.156690   3.074951   2.518844
    13  H    2.541027   3.090237   2.159707   2.524615   3.076923
    14  C    4.188276   4.191160   2.542545   2.770038   2.773580
    15  H    4.390254   4.736892   2.787728   2.554870   3.112847
    16  H    4.708203   4.371799   2.751175   3.066275   2.517850
    17  C    5.178453   5.168488   3.873419   4.169733   4.156587
    18  H    5.466640   5.168659   4.270825   4.801399   4.458102
    19  C    6.037398   6.297270   4.892336   4.968152   5.280501
    20  H    6.564026   6.847212   5.681109   5.829946   6.146696
    21  C    6.679033   7.136242   5.412002   5.189974   5.766326
    22  H    6.408068   6.809615   4.904066   4.582487   5.128794
    23  H    7.750300   8.113566   6.399808   6.205816   6.653639
    24  C    6.777016   7.579721   5.884731   5.483708   6.449761
    25  H    7.265259   8.079590   6.576034   6.278614   7.205643
    26  H    5.840721   6.800482   5.156985   4.699243   5.849948
    27  C    7.809749   8.701409   6.843612   6.255427   7.338893
    28  H    8.738595   9.511024   7.643772   7.119657   8.049246
    29  H    7.598530   8.454052   6.465311   5.776398   6.863409
    30  C    8.292806   9.417402   7.655585   6.978027   8.283856
    31  H    7.544235   8.799652   7.107730   6.375841   7.822061
    32  H    8.690670   9.818940   8.193695   7.613254   8.880227
    33  C    9.499281  10.644420   8.784031   8.006991   9.337788
    34  H    9.992403  11.254703   9.472020   8.665792  10.096311
    35  H   10.302307  11.346452   9.453561   8.730027   9.941362
    36  H    9.347179  10.469354   8.521532   7.665533   9.000713
                   11         12         13         14         15
    11  C    0.000000
    12  H    1.108225   0.000000
    13  H    1.107357   1.761341   0.000000
    14  C    1.523768   2.161334   2.157489   0.000000
    15  H    2.164208   3.079803   2.516523   1.106479   0.000000
    16  H    2.149265   2.516758   3.067116   1.108662   1.767706
    17  C    2.516517   2.739447   2.757349   1.492549   2.136721
    18  H    2.858292   2.628934   3.173520   2.211862   3.106816
    19  C    3.581985   3.954215   3.524142   2.515067   2.642377
    20  H    4.266532   4.477410   4.028146   3.442767   3.663553
    21  C    4.378417   5.006953   4.330238   3.132473   2.716975
    22  H    4.111835   4.847531   4.266322   2.748657   2.117332
    23  H    5.347418   5.879955   5.367488   4.009294   3.679760
    24  C    4.953606   5.714410   4.595616   4.023462   3.392954
    25  H    5.494415   6.129738   5.005461   4.679306   4.230895
    26  H    4.331856   5.181246   3.834224   3.681670   2.989652
    27  C    6.134459   6.991828   5.844762   5.131272   4.303626
    28  H    6.852052   7.630615   6.642934   5.701956   4.965718
    29  H    5.962652   6.894305   5.814527   4.917583   3.962353
    30  C    7.032272   7.932809   6.557608   6.257045   5.393633
    31  H    6.605555   7.554784   6.045253   6.038785   5.144554
    32  H    7.417976   8.232102   6.845477   6.692918   5.951546
    33  C    8.300419   9.246499   7.901177   7.458013   6.514903
    34  H    9.026689   9.983322   8.534549   8.304802   7.361141
    35  H    8.878175   9.773471   8.539037   7.900063   7.007885
    36  H    8.205864   9.205513   7.906619   7.349602   6.331211
                   16         17         18         19         20
    16  H    0.000000
    17  C    2.139149   0.000000
    18  H    2.574214   1.102231   0.000000
    19  C    3.222584   1.335387   2.096604   0.000000
    20  H    4.184366   2.096604   2.434312   1.102231   0.000000
    21  C    3.724993   2.515067   3.452449   1.492549   2.211862
    22  H    3.142278   2.642377   3.660607   2.136721   3.106816
    23  H    4.420500   3.222584   3.977584   2.139149   2.574214
    24  C    4.820472   3.581985   4.544781   2.516517   2.858292
    25  H    5.539876   3.954215   4.754059   2.739447   2.628934
    26  H    4.605491   3.524142   4.521626   2.757349   3.173520
    27  C    5.781603   4.892336   5.897072   3.873419   4.270825
    28  H    6.244929   5.280501   6.205527   4.156587   4.458102
    29  H    5.433574   4.968152   6.031121   4.169733   4.801399
    30  C    7.015289   6.074967   7.069807   5.058226   5.292940
    31  H    6.865141   6.037398   7.051885   5.178453   5.466640
    32  H    7.523565   6.297270   7.202093   5.168488   5.168659
    33  C    8.105548   7.371752   8.391762   6.372502   6.667329
    34  H    9.011773   8.233334   9.244624   7.234607   7.455088
    35  H    8.483245   7.673941   8.650285   6.587046   6.824142
    36  H    7.900453   7.460610   8.524816   6.595166   7.054579
                   21         22         23         24         25
    21  C    0.000000
    22  H    1.106479   0.000000
    23  H    1.108662   1.767706   0.000000
    24  C    1.523768   2.164208   2.149265   0.000000
    25  H    2.161334   3.079803   2.516758   1.108225   0.000000
    26  H    2.157489   2.516523   3.067116   1.107357   1.761341
    27  C    2.542545   2.787728   2.751175   1.517312   2.156690
    28  H    2.773580   3.112847   2.517850   2.156383   2.518844
    29  H    2.770038   2.554870   3.066275   2.156185   3.074951
    30  C    3.905312   4.204174   4.174118   2.541826   2.776624
    31  H    4.188276   4.390254   4.708203   2.766178   3.091216
    32  H    4.191160   4.736892   4.371799   2.766769   2.539771
    33  C    5.074508   5.205919   5.168553   3.894304   4.189623
    34  H    6.018684   6.197029   6.162825   4.720583   4.884139
    35  H    5.235577   5.430357   5.092062   4.219862   4.416406
    36  H    5.233547   5.128568   5.386379   4.219641   4.757796
                   26         27         28         29         30
    26  H    0.000000
    27  C    2.159707   0.000000
    28  H    3.076923   1.108680   0.000000
    29  H    2.524615   1.108600   1.761315   0.000000
    30  C    2.777983   1.518720   2.157407   2.157028   0.000000
    31  H    2.541027   2.151758   3.071171   2.516259   1.106802
    32  H    3.090237   2.151958   2.516743   3.071048   1.106887
    33  C    4.192070   2.532008   2.761272   2.760721   1.515977
    34  H    4.885884   3.497428   3.778186   3.777735   2.185125
    35  H    4.759935   2.803128   2.574224   3.122179   2.173766
    36  H    4.420296   2.803235   3.122961   2.573787   2.173674
                   31         32         33         34         35
    31  H    0.000000
    32  H    1.759444   0.000000
    33  C    2.161358   2.161330   0.000000
    34  H    2.516642   2.516385   1.101164   0.000000
    35  H    3.088593   2.533433   1.103378   1.777429   0.000000
    36  H    2.533159   3.088528   1.103365   1.777409   1.774207
                   36
    36  H    0.000000
 Stoichiometry    C12H24
 Framework group  C1[X(C12H24)]
 Deg. of freedom   102
 Full point group                 C1      NOp   1
 Largest Abelian subgroup         C1      NOp   1
 Largest concise Abelian subgroup C1      NOp   1
                         Standard orientation:                         
 ---------------------------------------------------------------------
 Center     Atomic      Atomic             Coordinates (Angstroms)
 Number     Number       Type             X           Y           Z
 ---------------------------------------------------------------------
      1          6           0        5.265822   -2.110452   -0.142240
      2          1           0        5.732696   -1.759202   -1.078240
      3          1           0        4.619975   -2.965740   -0.404497
      4          1           0        6.070620   -2.490670    0.506064
      5          6           0        4.468482   -1.004837    0.521121
      6          1           0        4.036089   -1.368425    1.472883
      7          1           0        5.139888   -0.171959    0.805247
      8          6           0        3.352731   -0.465748   -0.356942
      9          1           0        2.675932   -1.295928   -0.642838
     10          1           0        3.780308   -0.097737   -1.311361
     11          6           0        2.545258    0.641563    0.294278
     12          1           0        3.220010    1.474692    0.574934
     13          1           0        2.115118    0.279686    1.248355
     14          6           0        1.423871    1.174410   -0.589145
     15          1           0        0.734074    0.350854   -0.854153
     16          1           0        1.865268    1.520076   -1.545605
     17          6           0        0.658248    2.287732    0.044919
     18          1           0        1.239536    3.184090    0.316141
     19          6           0       -0.646139    2.267695    0.330282
     20          1           0       -0.998715    2.834743    1.207244
     21          6           0       -1.686432    1.507135   -0.422737
     22          1           0       -1.226383    1.014670   -1.300307
     23          1           0       -2.442267    2.208518   -0.830053
     24          6           0       -2.403434    0.469244    0.431992
     25          1           0       -2.842752    0.964466    1.320764
     26          1           0       -1.660125   -0.246532    0.833733
     27          6           0       -3.488326   -0.283453   -0.315464
     28          1           0       -4.228939    0.438142   -0.715419
     29          1           0       -3.048982   -0.773320   -1.207653
     30          6           0       -4.202798   -1.323405    0.529841
     31          1           0       -3.458486   -2.039244    0.928068
     32          1           0       -4.637700   -0.829625    1.419920
     33          6           0       -5.283111   -2.067418   -0.230128
     34          1           0       -5.791842   -2.817284    0.395536
     35          1           0       -6.053675   -1.374491   -0.608976
     36          1           0       -4.864679   -2.594575   -1.104448
 ---------------------------------------------------------------------
 Rotational constants (GHZ):      1.1560547      0.2509463      0.2142014
 Standard basis: STO-3G (5D, 7F)
 There are    84 symmetry adapted cartesian basis functions of A   symmetry.
 There are    84 symmetry adapted basis functions of A   symmetry.
    84 basis functions,   252 primitive gaussians,    84 cartesian basis functions
    48 alpha electrons       48 beta electrons
       nuclear repulsion energy       673.6441585832 Hartrees.
 NAtoms=   36 NActive=   36 NUniq=   36 SFac= 1.00D+00 NAtFMM=   60 NAOKFM=F Big=F
 Integral buffers will be    131072 words long.
 Raffenetti 1 integral format.
 Two-electron integral symmetry is turned on.
 One-electron integrals computed using PRISM.
 NBasis=    84 RedAO= T EigKep=  1.86D-01  NBF=    84
 NBsUse=    84 1.00D-06 EigRej= -1.00D+00 NBFU=    84
 ExpMin= 1.69D-01 ExpMax= 7.16D+01 ExpMxC= 7.16D+01 IAcc=1 IRadAn=         1 AccDes= 0.00D+00
 Harris functional with IExCor=  205 and IRadAn=       1 diagonalized for initial guess.
 HarFok:  IExCor=  205 AccDes= 0.00D+00 IRadAn=         1 IDoV= 1 UseB2=F ITyADJ=14
 ICtDFT=  3500011 ScaDFX=  1.000000  1.000000  1.000000  1.000000
 FoFCou: FMM=F IPFlag=           0 FMFlag=      100000 FMFlg1=           0
         NFxFlg=           0 DoJE=T BraDBF=F KetDBF=T FulRan=T
         wScrn=  0.000000 ICntrl=     500 IOpCl=  0 I1Cent=   200000004 NGrid=           0
         NMat0=    1 NMatS0=      1 NMatT0=    0 NMatD0=    1 NMtDS0=    0 NMtDT0=    0
 Petite list used in FoFCou.
 Keep R1 ints in memory in canonical form, NReq=7314153.
 Requested convergence on RMS density matrix=1.00D-08 within 128 cycles.
 Requested convergence on MAX density matrix=1.00D-06.
 Requested convergence on             energy=1.00D-06.
 No special actions if energy rises.
 SCF Done:  E(RHF) =  -462.847619312     A.U. after   10 cycles
            NFock= 10  Conv=0.85D-08     -V/T= 2.0088

 **********************************************************************

            Population analysis using the SCF density.

 **********************************************************************

 Orbital symmetries:
       Occupied  (A) (A) (A) (A) (A) (A) (A) (A) (A) (A) (A) (A)
                 (A) (A) (A) (A) (A) (A) (A) (A) (A) (A) (A) (A)
                 (A) (A) (A) (A) (A) (A) (A) (A) (A) (A) (A) (A)
                 (A) (A) (A) (A) (A) (A) (A) (A) (A) (A) (A) (A)
       Virtual   (A) (A) (A) (A) (A) (A) (A) (A) (A) (A) (A) (A)
                 (A) (A) (A) (A) (A) (A) (A) (A) (A) (A) (A) (A)
                 (A) (A) (A) (A) (A) (A) (A) (A) (A) (A) (A) (A)
 The electronic state is 1-A.
 Alpha  occ. eigenvalues --  -11.04136 -11.04114 -11.04102 -11.04044 -11.03975
 Alpha  occ. eigenvalues --  -11.03847 -11.03683 -11.03625 -11.03416 -11.03334
 Alpha  occ. eigenvalues --  -11.00773 -11.00695  -1.05898  -1.04506  -1.01854
 Alpha  occ. eigenvalues --   -0.98425  -0.94442  -0.89224  -0.85217  -0.79056
 Alpha  occ. eigenvalues --   -0.77315  -0.75135  -0.74947  -0.67320  -0.62921
 Alpha  occ. eigenvalues --   -0.61381  -0.59310  -0.56601  -0.56025  -0.54849
 Alpha  occ. eigenvalues --   -0.54433  -0.52590  -0.52211  -0.51069  -0.49105
 Alpha  occ. eigenvalues --   -0.47768  -0.47316  -0.46613  -0.45009  -0.43905
 Alpha  occ. eigenvalues --   -0.43370  -0.42682  -0.42108  -0.41837  -0.41541
 Alpha  occ. eigenvalues --   -0.40894  -0.40102  -0.26263
 Alpha virt. eigenvalues --    0.29713   0.56333   0.57922   0.58021   0.58725
 Alpha virt. eigenvalues --    0.61634   0.63574   0.65737   0.66273   0.66674
 Alpha virt. eigenvalues --    0.67421   0.67956   0.69205   0.69381   0.70031
 Alpha virt. eigenvalues --    0.71415   0.72377   0.72785   0.73722   0.74359
 Alpha virt. eigenvalues --    0.75079   0.75690   0.76251   0.76662   0.77318
 Alpha virt. eigenvalues --    0.77716   0.78504   0.78606   0.80529   0.80621
 Alpha virt. eigenvalues --    0.80910   0.81549   0.82065   0.82523   0.94882
 Alpha virt. eigenvalues --    1.06615
          Condensed to atoms (all electrons):
               1          2          3          4          5          6
     1  C    4.726128   0.380230   0.380230   0.381623   0.368775  -0.022169
     2  H    0.380230   0.633610  -0.021862  -0.021533  -0.021006   0.001879
     3  H    0.380230  -0.021862   0.633646  -0.021534  -0.021011  -0.002226
     4  H    0.381623  -0.021533  -0.021534   0.628879  -0.019418  -0.002126
     5  C    0.368775  -0.021006  -0.021011  -0.019418   4.725721   0.379352
     6  H   -0.022169   0.001879  -0.002226  -0.002126   0.379352   0.645976
     7  H   -0.022178  -0.002222   0.001880  -0.002129   0.379320  -0.023856
     8  C   -0.022853  -0.002134  -0.002133   0.001240   0.368028  -0.023043
     9  H   -0.002219  -0.000006   0.000394   0.000010  -0.022703  -0.002345
    10  H   -0.002209   0.000394  -0.000006   0.000009  -0.022692   0.001944
    11  C    0.000716   0.000008   0.000008  -0.000015  -0.021629  -0.002202
    12  H    0.000007   0.000002  -0.000001  -0.000000  -0.002162   0.000003
    13  H    0.000007  -0.000001   0.000002  -0.000000  -0.002166   0.000385
    14  C   -0.000005  -0.000000  -0.000000   0.000000   0.000690   0.000006
    15  H   -0.000000   0.000000  -0.000000   0.000000   0.000006   0.000002
    16  H   -0.000000  -0.000000   0.000000   0.000000   0.000011  -0.000001
    17  C    0.000000   0.000000   0.000000  -0.000000  -0.000004  -0.000000
    18  H    0.000000  -0.000000  -0.000000  -0.000000  -0.000000   0.000000
    19  C    0.000000  -0.000000  -0.000000  -0.000000  -0.000000  -0.000000
    20  H    0.000000   0.000000   0.000000  -0.000000  -0.000000  -0.000000
    21  C   -0.000000  -0.000000   0.000000   0.000000   0.000000  -0.000000
    22  H    0.000000   0.000000   0.000000  -0.000000  -0.000000  -0.000000
    23  H    0.000000   0.000000   0.000000  -0.000000  -0.000000  -0.000000
    24  C   -0.000000  -0.000000  -0.000000   0.000000   0.000000   0.000000
    25  H   -0.000000  -0.000000   0.000000   0.000000   0.000000   0.000000
    26  H    0.000000   0.000000   0.000000  -0.000000  -0.000000  -0.000000
    27  C    0.000000   0.000000   0.000000  -0.000000  -0.000000  -0.000000
    28  H    0.000000   0.000000   0.000000  -0.000000  -0.000000  -0.000000
    29  H    0.000000  -0.000000  -0.000000  -0.000000  -0.000000  -0.000000
    30  C   -0.000000  -0.000000  -0.000000   0.000000   0.000000   0.000000
    31  H   -0.000000  -0.000000  -0.000000   0.000000   0.000000   0.000000
    32  H   -0.000000  -0.000000  -0.000000   0.000000   0.000000   0.000000
    33  C    0.000000   0.000000   0.000000   0.000000  -0.000000  -0.000000
    34  H   -0.000000  -0.000000  -0.000000   0.000000   0.000000   0.000000
    35  H    0.000000  -0.000000  -0.000000   0.000000  -0.000000  -0.000000
    36  H    0.000000   0.000000   0.000000  -0.000000  -0.000000  -0.000000
               7          8          9         10         11         12
     1  C   -0.022178  -0.022853  -0.002219  -0.002209   0.000716   0.000007
     2  H   -0.002222  -0.002134  -0.000006   0.000394   0.000008   0.000002
     3  H    0.001880  -0.002133   0.000394  -0.000006   0.000008  -0.000001
     4  H   -0.002129   0.001240   0.000010   0.000009  -0.000015  -0.000000
     5  C    0.379320   0.368028  -0.022703  -0.022692  -0.021629  -0.002162
     6  H   -0.023856  -0.023043  -0.002345   0.001944  -0.002202   0.000003
     7  H    0.646138  -0.023046   0.001946  -0.002345  -0.002194   0.000392
     8  C   -0.023046   4.738433   0.378351   0.378440   0.369063  -0.022699
     9  H    0.001946   0.378351   0.649464  -0.023851  -0.022800   0.001933
    10  H   -0.002345   0.378440  -0.023851   0.649152  -0.022785  -0.002342
    11  C   -0.002194   0.369063  -0.022800  -0.022785   4.737868   0.378537
    12  H    0.000392  -0.022699   0.001933  -0.002342   0.378537   0.647148
    13  H    0.000003  -0.022515  -0.002275   0.001922   0.378474  -0.023766
    14  C    0.000006  -0.021602  -0.002184  -0.002204   0.365131  -0.022456
    15  H   -0.000001  -0.002011   0.000379  -0.000001  -0.022190   0.001883
    16  H    0.000002  -0.002513  -0.000003   0.000432  -0.023449  -0.002230
    17  C   -0.000000   0.000714   0.000008   0.000007  -0.022588  -0.002318
    18  H   -0.000000   0.000006  -0.000001   0.000001  -0.002063   0.000383
    19  C    0.000000  -0.000001   0.000001  -0.000000  -0.000066   0.000011
    20  H   -0.000000   0.000000   0.000000   0.000000  -0.000021  -0.000002
    21  C    0.000000  -0.000000  -0.000000  -0.000000   0.000025  -0.000001
    22  H   -0.000000   0.000001  -0.000000   0.000000   0.000005  -0.000001
    23  H   -0.000000   0.000000   0.000000  -0.000000  -0.000001   0.000000
    24  C    0.000000  -0.000000  -0.000000  -0.000000   0.000003  -0.000000
    25  H    0.000000   0.000000  -0.000000  -0.000000   0.000000  -0.000000
    26  H   -0.000000   0.000000   0.000000   0.000000  -0.000004   0.000000
    27  C   -0.000000   0.000000   0.000000   0.000000  -0.000000   0.000000
    28  H   -0.000000   0.000000  -0.000000  -0.000000  -0.000000  -0.000000
    29  H   -0.000000   0.000000   0.000000  -0.000000  -0.000000   0.000000
    30  C    0.000000  -0.000000  -0.000000  -0.000000   0.000000  -0.000000
    31  H    0.000000  -0.000000  -0.000000  -0.000000   0.000000  -0.000000
    32  H    0.000000  -0.000000   0.000000  -0.000000   0.000000   0.000000
    33  C   -0.000000   0.000000   0.000000   0.000000  -0.000000   0.000000
    34  H    0.000000  -0.000000  -0.000000  -0.000000   0.000000  -0.000000
    35  H   -0.000000   0.000000  -0.000000   0.000000  -0.000000   0.000000
    36  H   -0.000000   0.000000   0.000000   0.000000  -0.000000   0.000000
              13         14         15         16         17         18
     1  C    0.000007  -0.000005  -0.000000  -0.000000   0.000000   0.000000
     2  H   -0.000001  -0.000000   0.000000  -0.000000   0.000000  -0.000000
     3  H    0.000002  -0.000000  -0.000000   0.000000   0.000000  -0.000000
     4  H   -0.000000   0.000000   0.000000   0.000000  -0.000000  -0.000000
     5  C   -0.002166   0.000690   0.000006   0.000011  -0.000004  -0.000000
     6  H    0.000385   0.000006   0.000002  -0.000001  -0.000000   0.000000
     7  H    0.000003   0.000006  -0.000001   0.000002  -0.000000  -0.000000
     8  C   -0.022515  -0.021602  -0.002011  -0.002513   0.000714   0.000006
     9  H   -0.002275  -0.002184   0.000379  -0.000003   0.000008  -0.000001
    10  H    0.001922  -0.002204  -0.000001   0.000432   0.000007   0.000001
    11  C    0.378474   0.365131  -0.022190  -0.023449  -0.022588  -0.002063
    12  H   -0.023766  -0.022456   0.001883  -0.002230  -0.002318   0.000383
    13  H    0.646309  -0.022952  -0.002407   0.001981  -0.001626   0.000025
    14  C   -0.022952   4.726114   0.380075   0.373617   0.382271  -0.025668
    15  H   -0.002407   0.380075   0.640779  -0.022749  -0.022440   0.001689
    16  H    0.001981   0.373617  -0.022749   0.650700  -0.024333  -0.000808
    17  C   -0.001626   0.382271  -0.022440  -0.024333   4.834275   0.385830
    18  H    0.000025  -0.025668   0.001689  -0.000808   0.385830   0.625212
    19  C    0.000121  -0.026443  -0.004325   0.000932   0.588991  -0.029289
    20  H   -0.000011   0.001432   0.000022  -0.000034  -0.029367  -0.004858
    21  C    0.000005  -0.003740  -0.001080   0.000075  -0.026238   0.001412
    22  H    0.000001  -0.001068  -0.000691  -0.000058  -0.004237   0.000021
    23  H    0.000000   0.000044   0.000007   0.000014   0.000193  -0.000037
    24  C   -0.000001   0.000035  -0.000079  -0.000005   0.000473  -0.000016
    25  H   -0.000000  -0.000001  -0.000003  -0.000000   0.000010  -0.000001
    26  H    0.000001   0.000016   0.000010   0.000000   0.000077  -0.000003
    27  C    0.000000  -0.000000   0.000004   0.000000  -0.000006   0.000000
    28  H    0.000000  -0.000000   0.000000   0.000000  -0.000000   0.000000
    29  H    0.000000  -0.000000   0.000000   0.000000   0.000000   0.000000
    30  C   -0.000000   0.000000  -0.000000  -0.000000   0.000000  -0.000000
    31  H   -0.000000  -0.000000  -0.000000  -0.000000  -0.000000  -0.000000
    32  H   -0.000000   0.000000  -0.000000  -0.000000   0.000000  -0.000000
    33  C    0.000000  -0.000000   0.000000   0.000000  -0.000000   0.000000
    34  H   -0.000000   0.000000  -0.000000  -0.000000   0.000000  -0.000000
    35  H    0.000000  -0.000000   0.000000   0.000000  -0.000000   0.000000
    36  H    0.000000   0.000000   0.000000   0.000000  -0.000000   0.000000
              19         20         21         22         23         24
     1  C    0.000000   0.000000  -0.000000   0.000000   0.000000  -0.000000
     2  H   -0.000000   0.000000  -0.000000   0.000000   0.000000  -0.000000
     3  H   -0.000000   0.000000   0.000000   0.000000   0.000000  -0.000000
     4  H   -0.000000  -0.000000   0.000000  -0.000000  -0.000000   0.000000
     5  C   -0.000000  -0.000000   0.000000  -0.000000  -0.000000   0.000000
     6  H   -0.000000  -0.000000  -0.000000  -0.000000  -0.000000   0.000000
     7  H    0.000000  -0.000000   0.000000  -0.000000  -0.000000   0.000000
     8  C   -0.000001   0.000000  -0.000000   0.000001   0.000000  -0.000000
     9  H    0.000001   0.000000  -0.000000  -0.000000   0.000000  -0.000000
    10  H   -0.000000   0.000000  -0.000000   0.000000  -0.000000  -0.000000
    11  C   -0.000066  -0.000021   0.000025   0.000005  -0.000001   0.000003
    12  H    0.000011  -0.000002  -0.000001  -0.000001   0.000000  -0.000000
    13  H    0.000121  -0.000011   0.000005   0.000001   0.000000  -0.000001
    14  C   -0.026443   0.001432  -0.003740  -0.001068   0.000044   0.000035
    15  H   -0.004325   0.000022  -0.001080  -0.000691   0.000007  -0.000079
    16  H    0.000932  -0.000034   0.000075  -0.000058   0.000014  -0.000005
    17  C    0.588991  -0.029367  -0.026238  -0.004237   0.000193   0.000473
    18  H   -0.029289  -0.004858   0.001412   0.000021  -0.000037  -0.000016
    19  C    4.834549   0.385971   0.382243  -0.022331  -0.022636  -0.024030
    20  H    0.385971   0.625153  -0.025728   0.001691  -0.002310  -0.000832
    21  C    0.382243  -0.025728   4.725294   0.379985   0.378509   0.360822
    22  H   -0.022331   0.001691   0.379985   0.640136  -0.023180  -0.021813
    23  H   -0.022636  -0.002310   0.378509  -0.023180   0.639036  -0.023371
    24  C   -0.024030  -0.000832   0.360822  -0.021813  -0.023371   4.742873
    25  H   -0.002416   0.000397  -0.022370   0.001884  -0.002283   0.378785
    26  H   -0.002106  -0.000005  -0.022676  -0.002420   0.001935   0.379086
    27  C    0.000764  -0.000008  -0.021913  -0.002032  -0.002327   0.368371
    28  H    0.000007   0.000001  -0.002224  -0.000002   0.000442  -0.022748
    29  H    0.000009  -0.000001  -0.002219   0.000374   0.000003  -0.022789
    30  C   -0.000005   0.000000   0.000699   0.000006   0.000007  -0.021704
    31  H   -0.000000   0.000000   0.000007   0.000002  -0.000001  -0.002210
    32  H   -0.000000  -0.000000   0.000007  -0.000001   0.000002  -0.002201
    33  C    0.000000  -0.000000  -0.000005  -0.000000  -0.000000   0.000719
    34  H   -0.000000   0.000000   0.000000   0.000000   0.000000  -0.000015
    35  H    0.000000  -0.000000  -0.000000   0.000000  -0.000000   0.000008
    36  H    0.000000  -0.000000  -0.000000  -0.000000   0.000000   0.000008
              25         26         27         28         29         30
     1  C   -0.000000   0.000000   0.000000   0.000000   0.000000  -0.000000
     2  H   -0.000000   0.000000   0.000000   0.000000  -0.000000  -0.000000
     3  H    0.000000   0.000000   0.000000   0.000000  -0.000000  -0.000000
     4  H    0.000000  -0.000000  -0.000000  -0.000000  -0.000000   0.000000
     5  C    0.000000  -0.000000  -0.000000  -0.000000  -0.000000   0.000000
     6  H    0.000000  -0.000000  -0.000000  -0.000000  -0.000000   0.000000
     7  H    0.000000  -0.000000  -0.000000  -0.000000  -0.000000   0.000000
     8  C    0.000000   0.000000   0.000000   0.000000   0.000000  -0.000000
     9  H   -0.000000   0.000000   0.000000  -0.000000   0.000000  -0.000000
    10  H   -0.000000   0.000000   0.000000  -0.000000  -0.000000  -0.000000
    11  C    0.000000  -0.000004  -0.000000  -0.000000  -0.000000   0.000000
    12  H   -0.000000   0.000000   0.000000  -0.000000   0.000000  -0.000000
    13  H   -0.000000   0.000001   0.000000   0.000000   0.000000  -0.000000
    14  C   -0.000001   0.000016  -0.000000  -0.000000  -0.000000   0.000000
    15  H   -0.000003   0.000010   0.000004   0.000000   0.000000  -0.000000
    16  H   -0.000000   0.000000   0.000000   0.000000   0.000000  -0.000000
    17  C    0.000010   0.000077  -0.000006  -0.000000   0.000000   0.000000
    18  H   -0.000001  -0.000003   0.000000   0.000000   0.000000  -0.000000
    19  C   -0.002416  -0.002106   0.000764   0.000007   0.000009  -0.000005
    20  H    0.000397  -0.000005  -0.000008   0.000001  -0.000001   0.000000
    21  C   -0.022370  -0.022676  -0.021913  -0.002224  -0.002219   0.000699
    22  H    0.001884  -0.002420  -0.002032  -0.000002   0.000374   0.000006
    23  H   -0.002283   0.001935  -0.002327   0.000442   0.000003   0.000007
    24  C    0.378785   0.379086   0.368371  -0.022748  -0.022789  -0.021704
    25  H    0.649202  -0.023914  -0.022794  -0.002340   0.001934  -0.002155
    26  H   -0.023914   0.648536  -0.022629   0.001923  -0.002280  -0.002156
    27  C   -0.022794  -0.022629   4.740326   0.378412   0.378396   0.367886
    28  H   -0.002340   0.001923   0.378412   0.650503  -0.023908  -0.022733
    29  H    0.001934  -0.002280   0.378396  -0.023908   0.650704  -0.022770
    30  C   -0.002155  -0.002156   0.367886  -0.022733  -0.022770   4.726229
    31  H    0.000004   0.000387  -0.023031   0.001945  -0.002346   0.379343
    32  H    0.000391   0.000004  -0.023025  -0.002345   0.001947   0.379317
    33  C    0.000007   0.000007  -0.022881  -0.002209  -0.002215   0.368716
    34  H   -0.000000  -0.000000   0.001242   0.000009   0.000009  -0.019430
    35  H    0.000002  -0.000001  -0.002136   0.000393  -0.000005  -0.020998
    36  H   -0.000001   0.000002  -0.002134  -0.000005   0.000394  -0.021006
              31         32         33         34         35         36
     1  C   -0.000000  -0.000000   0.000000  -0.000000   0.000000   0.000000
     2  H   -0.000000  -0.000000   0.000000  -0.000000  -0.000000   0.000000
     3  H   -0.000000  -0.000000   0.000000  -0.000000  -0.000000   0.000000
     4  H    0.000000   0.000000   0.000000   0.000000   0.000000  -0.000000
     5  C    0.000000   0.000000  -0.000000   0.000000  -0.000000  -0.000000
     6  H    0.000000   0.000000  -0.000000   0.000000  -0.000000  -0.000000
     7  H    0.000000   0.000000  -0.000000   0.000000  -0.000000  -0.000000
     8  C   -0.000000  -0.000000   0.000000  -0.000000   0.000000   0.000000
     9  H   -0.000000   0.000000   0.000000  -0.000000  -0.000000   0.000000
    10  H   -0.000000  -0.000000   0.000000  -0.000000   0.000000   0.000000
    11  C    0.000000   0.000000  -0.000000   0.000000  -0.000000  -0.000000
    12  H   -0.000000   0.000000   0.000000  -0.000000   0.000000   0.000000
    13  H   -0.000000  -0.000000   0.000000  -0.000000   0.000000   0.000000
    14  C   -0.000000   0.000000  -0.000000   0.000000  -0.000000   0.000000
    15  H   -0.000000  -0.000000   0.000000  -0.000000   0.000000   0.000000
    16  H   -0.000000  -0.000000   0.000000  -0.000000   0.000000   0.000000
    17  C   -0.000000   0.000000  -0.000000   0.000000  -0.000000  -0.000000
    18  H   -0.000000  -0.000000   0.000000  -0.000000   0.000000   0.000000
    19  C   -0.000000  -0.000000   0.000000  -0.000000   0.000000   0.000000
    20  H    0.000000  -0.000000  -0.000000   0.000000  -0.000000  -0.000000
    21  C    0.000007   0.000007  -0.000005   0.000000  -0.000000  -0.000000
    22  H    0.000002  -0.000001  -0.000000   0.000000   0.000000  -0.000000
    23  H   -0.000001   0.000002  -0.000000   0.000000  -0.000000   0.000000
    24  C   -0.002210  -0.002201   0.000719  -0.000015   0.000008   0.000008
    25  H    0.000004   0.000391   0.000007  -0.000000   0.000002  -0.000001
    26  H    0.000387   0.000004   0.000007  -0.000000  -0.000001   0.000002
    27  C   -0.023031  -0.023025  -0.022881   0.001242  -0.002136  -0.002134
    28  H    0.001945  -0.002345  -0.002209   0.000009   0.000393  -0.000005
    29  H   -0.002346   0.001947  -0.002215   0.000009  -0.000005   0.000394
    30  C    0.379343   0.379317   0.368716  -0.019430  -0.020998  -0.021006
    31  H    0.646619  -0.023877  -0.022201  -0.002124   0.001880  -0.002226
    32  H   -0.023877   0.646613  -0.022204  -0.002128  -0.002222   0.001880
    33  C   -0.022201  -0.022204   4.726359   0.381578   0.380231   0.380225
    34  H   -0.002124  -0.002128   0.381578   0.629361  -0.021551  -0.021554
    35  H    0.001880  -0.002222   0.380231  -0.021551   0.633846  -0.021870
    36  H   -0.002226   0.001880   0.380225  -0.021554  -0.021870   0.633929
 Mulliken charges:
               1
     1  C   -0.166084
     2  H    0.052641
     3  H    0.052614
     4  H    0.054993
     5  C   -0.089111
     6  H    0.048421
     7  H    0.048285
     8  C   -0.089729
     9  H    0.045902
    10  H    0.046133
    11  C   -0.087828
    12  H    0.047679
    13  H    0.048485
    14  C   -0.101118
    15  H    0.053123
    16  H    0.048419
    17  C   -0.059692
    18  H    0.048166
    19  C   -0.059949
    20  H    0.048507
    21  C   -0.100889
    22  H    0.053726
    23  H    0.055956
    24  C   -0.089368
    25  H    0.045660
    26  H    0.046208
    27  C   -0.090485
    28  H    0.044878
    29  H    0.044766
    30  C   -0.089246
    31  H    0.047830
    32  H    0.047841
    33  C   -0.166125
    34  H    0.054605
    35  H    0.052425
    36  H    0.052359
 Sum of Mulliken charges =  -0.00000
 Mulliken charges with hydrogens summed into heavy atoms:
               1
     1  C   -0.005836
     5  C    0.007595
     8  C    0.002306
    11  C    0.008336
    14  C    0.000425
    17  C   -0.011526
    19  C   -0.011442
    21  C    0.008793
    24  C    0.002501
    27  C   -0.000842
    30  C    0.006426
    33  C   -0.006736
 Electronic spatial extent (au):  <R**2>=           5257.1125
 Charge=             -0.0000 electrons
 Dipole moment (field-independent basis, Debye):
    X=              0.0593    Y=             -0.1415    Z=             -0.0237  Tot=              0.1552
 Quadrupole moment (field-independent basis, Debye-Ang):
   XX=            -75.2531   YY=            -76.4826   ZZ=            -75.8053
   XY=             -0.0516   XZ=             -0.3350   YZ=              0.1925
 Traceless Quadrupole moment (field-independent basis, Debye-Ang):
   XX=              0.5939   YY=             -0.6356   ZZ=              0.0417
   XY=             -0.0516   XZ=             -0.3350   YZ=              0.1925
 Octapole moment (field-independent basis, Debye-Ang**2):
  XXX=              1.7903  YYY=             -1.0947  ZZZ=             -0.0627  XYY=              0.3631
  XXY=              8.9364  XXZ=              1.1018  XZZ=              0.0211  YZZ=             -0.0748
  YYZ=              2.1252  XYZ=             -0.9024
 Hexadecapole moment (field-independent basis, Debye-Ang**3):
 XXXX=          -5561.1971 YYYY=          -1164.4844 ZZZZ=           -223.6617 XXXY=             -7.4397
 XXXZ=             -4.2548 YYYX=              8.0584 YYYZ=              4.8212 ZZZX=             -4.5851
 ZZZY=              1.0149 XXYY=          -1121.2764 XXZZ=           -957.3659 YYZZ=           -229.0253
 XXYZ=            -10.9889 YYXZ=              0.0867 ZZXY=             -1.3830
 N-N= 6.736441585832D+02 E-N=-2.422724551523D+03  KE= 4.588007432200D+02
 1\1\GINC-CN0572\SP\RHF\STO-3G\C12H24\GRAHA682\04-Dec-2017\0\\# hf/sto-
 3g geom=connectivity\\Title Card Required\\0,1\C,0,-6.854443,-0.134877
 ,-0.168414\H,0,-7.040212,-0.818328,0.677653\H,0,-6.884443,-0.743683,-1
 .088126\H,0,-7.697052,0.572652,-0.212848\C,0,-5.520363,0.56989,-0.0210
 4\H,0,-5.368713,1.273324,-0.861988\H,0,-5.523451,1.199843,0.889097\C,0
 ,-4.344023,-0.388597,0.042497\H,0,-4.335099,-1.020835,-0.868101\H,0,-4
 .48926,-1.094591,0.884904\C,0,-3.001393,0.302765,0.189464\H,0,-3.00708
 7,0.930311,1.102873\H,0,-2.850369,1.009328,-0.649702\C,0,-1.824677,-0.
 663624,0.246928\H,0,-1.800656,-1.277687,-0.673205\H,0,-1.994641,-1.373
 719,1.081199\C,0,-0.511885,0.023005,0.428088\H,0,-0.405457,0.634962,1.
 338635\C,0,0.511885,-0.023005,-0.428088\H,0,1.17216477,0.85647358,-0.5
 0199457\C,0,0.83176686,-1.16364933,-1.3360017\H,0,0.13300306,-1.999978
 36,-1.14474794\H,0,1.84319143,-1.55449388,-1.1049353\C,0,0.78740415,-0
 .78375375,-2.81098702\H,0,1.47199862,0.06870019,-2.99213636\H,0,-0.223
 26638,-0.40463997,-3.05808399\C,0,1.14740554,-1.92782493,-3.74036106\H
 ,0,2.15961502,-2.30319809,-3.48797669\H,0,0.46596539,-2.78217558,-3.55
 403462\C,0,1.09942492,-1.55669372,-5.21225424\H,0,0.08779364,-1.180660
 9,-5.45763582\H,0,1.77970764,-0.70231609,-5.39240396\C,0,1.46070983,-2
 .7093212,-6.12828275\H,0,1.42166009,-2.42500047,-7.19139065\H,0,2.4795
 753,-3.07895975,-5.92158515\H,0,0.77337731,-3.56094546,-5.98783707\\Ve
 rsion=ES64L-G09RevE.01\State=1-A\HF=-462.8476193\RMSD=8.505e-09\Dipole
 =-0.0530288,-0.0168379,-0.0251737\Quadrupole=0.1517325,-0.025748,-0.12
 59845,0.1154367,-0.5050747,-0.0734847\PG=C01 [X(C12H24)]\\@


 IF NO USE IS MADE OF THE LABOR OF PAST AGES,
 THE WORLD MUST REMAIN ALWAYS IN THE INFANCY OF KNOWLEDGE.

                          -- CICERO
 Job cpu time:       0 days  0 hours  1 minutes  0.7 seconds.
 File lengths (MBytes):  RWF=      5 Int=      0 D2E=      0 Chk=      2 Scr=      1
 Normal termination of Gaussian 09 at Mon Dec  4 11:09:09 2017.
60.11user 0.61system 0:02.92elapsed 2077%CPU (0avgtext+0avgdata 430432maxresident)k
0inputs+15632outputs (0major+25813minor)pagefaults 0swaps
