 Entering Gaussian System, Link 0=g09
 Initial command:
 /panfs/roc/msisoft/gaussian/g09.e01_mesabi/g09/l1.exe "/scratch/graha682/4575977.mesabim3.msi.umn.edu/Gau-7088.inp" -scrdir="/scratch/graha682/4575977.mesabim3.msi.umn.edu/"
 Entering Link 1 = /panfs/roc/msisoft/gaussian/g09.e01_mesabi/g09/l1.exe PID=      7089.
  
 Copyright (c) 1988,1990,1992,1993,1995,1998,2003,2009,2015,
            Gaussian, Inc.  All Rights Reserved.
  
 This is part of the Gaussian(R) 09 program.  It is based on
 the Gaussian(R) 03 system (copyright 2003, Gaussian, Inc.),
 the Gaussian(R) 98 system (copyright 1998, Gaussian, Inc.),
 the Gaussian(R) 94 system (copyright 1995, Gaussian, Inc.),
 the Gaussian 92(TM) system (copyright 1992, Gaussian, Inc.),
 the Gaussian 90(TM) system (copyright 1990, Gaussian, Inc.),
 the Gaussian 88(TM) system (copyright 1988, Gaussian, Inc.),
 the Gaussian 86(TM) system (copyright 1986, Carnegie Mellon
 University), and the Gaussian 82(TM) system (copyright 1983,
 Carnegie Mellon University). Gaussian is a federally registered
 trademark of Gaussian, Inc.
  
 This software contains proprietary and confidential information,
 including trade secrets, belonging to Gaussian, Inc.
  
 This software is provided under written license and may be
 used, copied, transmitted, or stored only in accord with that
 written license.
  
 The following legend is applicable only to US Government
 contracts under FAR:
  
                    RESTRICTED RIGHTS LEGEND
  
 Use, reproduction and disclosure by the US Government is
 subject to restrictions as set forth in subparagraphs (a)
 and (c) of the Commercial Computer Software - Restricted
 Rights clause in FAR 52.227-19.
  
 Gaussian, Inc.
 340 Quinnipiac St., Bldg. 40, Wallingford CT 06492
  
  
 ---------------------------------------------------------------
 Warning -- This program may not be used in any manner that
 competes with the business of Gaussian, Inc. or will provide
 assistance to any competitor of Gaussian, Inc.  The licensee
 of this program is prohibited from giving any competitor of
 Gaussian, Inc. access to this program.  By using this program,
 the user acknowledges that Gaussian, Inc. is engaged in the
 business of creating and licensing software in the field of
 computational chemistry and represents and warrants to the
 licensee that it is not a competitor of Gaussian, Inc. and that
 it will not use this program in any manner prohibited above.
 ---------------------------------------------------------------
  

 Cite this work as:
 Gaussian 09, Revision E.01,
 M. J. Frisch, G. W. Trucks, H. B. Schlegel, G. E. Scuseria, 
 M. A. Robb, J. R. Cheeseman, G. Scalmani, V. Barone, B. Mennucci, 
 G. A. Petersson, H. Nakatsuji, M. Caricato, X. Li, H. P. Hratchian, 
 A. F. Izmaylov, J. Bloino, G. Zheng, J. L. Sonnenberg, M. Hada, 
 M. Ehara, K. Toyota, R. Fukuda, J. Hasegawa, M. Ishida, T. Nakajima, 
 Y. Honda, O. Kitao, H. Nakai, T. Vreven, J. A. Montgomery, Jr., 
 J. E. Peralta, F. Ogliaro, M. Bearpark, J. J. Heyd, E. Brothers, 
 K. N. Kudin, V. N. Staroverov, T. Keith, R. Kobayashi, J. Normand, 
 K. Raghavachari, A. Rendell, J. C. Burant, S. S. Iyengar, J. Tomasi, 
 M. Cossi, N. Rega, J. M. Millam, M. Klene, J. E. Knox, J. B. Cross, 
 V. Bakken, C. Adamo, J. Jaramillo, R. Gomperts, R. E. Stratmann, 
 O. Yazyev, A. J. Austin, R. Cammi, C. Pomelli, J. W. Ochterski, 
 R. L. Martin, K. Morokuma, V. G. Zakrzewski, G. A. Voth, 
 P. Salvador, J. J. Dannenberg, S. Dapprich, A. D. Daniels, 
 O. Farkas, J. B. Foresman, J. V. Ortiz, J. Cioslowski, 
 and D. J. Fox, Gaussian, Inc., Wallingford CT, 2013.
 
 ******************************************
 Gaussian 09:  ES64L-G09RevE.01 30-Nov-2015
                 4-Dec-2017 
 ******************************************
 %LindaWorkers=in-cn0005
 %NProcShared=24
 Will use up to   24 processors via shared memory.
 %Mem=59800mb
 %chk=20171201_def2svp_m06_120c12h24.chk
 SetLPE:  input flags=" -workerwait 900 -opt "Tsnet.Node.lindarsharg: ssh " "
 SetLPE:    new flags=" -workerwait 900 -opt "Tsnet.Node.lindarsharg: ssh "  -nodelist 'in-cn0005'"
 Will use up to    1 processors via Linda.
 -----------------------------
 # hf/sto-3g geom=connectivity
 -----------------------------
 1/38=1,57=2/1;
 2/12=2,17=6,18=5,40=1/2;
 3/6=3,11=9,16=1,25=1,30=1/1,2,3;
 4//1;
 5/5=2,38=5/2;
 6/7=2,8=2,9=2,10=2,28=1/1;
 99/5=1,9=1/99;
 -------------------
 Title Card Required
 -------------------
 Symbolic Z-matrix:
 Charge =  0 Multiplicity = 1
 C                    -6.85444  -0.13488  -0.16841 
 H                    -7.04021  -0.81833   0.67765 
 H                    -6.88444  -0.74368  -1.08813 
 H                    -7.69705   0.57265  -0.21285 
 C                    -5.52036   0.56989  -0.02104 
 H                    -5.36871   1.27332  -0.86199 
 H                    -5.52345   1.19984   0.8891 
 C                    -4.34402  -0.3886    0.0425 
 H                    -4.3351   -1.02083  -0.8681 
 H                    -4.48926  -1.09459   0.8849 
 C                    -3.00139   0.30277   0.18946 
 H                    -3.00709   0.93031   1.10287 
 H                    -2.85037   1.00933  -0.6497 
 C                    -1.82468  -0.66362   0.24693 
 H                    -1.80066  -1.27769  -0.67321 
 H                    -1.99464  -1.37372   1.0812 
 C                    -0.51189   0.02301   0.42809 
 H                    -0.40546   0.63496   1.33864 
 C                     0.51189  -0.02301  -0.42809 
 H                     0.85424   0.91957  -0.88554 
 C                     1.22794  -1.26031  -0.85708 
 H                     0.82954  -2.13238  -0.30476 
 H                     2.29895  -1.18894  -0.57961 
 C                     1.13462  -1.51508  -2.3565 
 H                     1.51393  -0.62963  -2.90447 
 H                     0.06891  -1.60256  -2.64434 
 C                     1.89074  -2.75092  -2.80729 
 H                     2.95643  -2.65767  -2.51614 
 H                     1.51478  -3.63501  -2.25409 
 C                     1.79669  -3.01323  -4.30023 
 H                     0.73099  -3.10303  -4.58523 
 H                     2.17125  -2.1271   -4.84765 
 C                     2.55614  -4.25093  -4.73558 
 H                     2.47879  -4.42769  -5.8197 
 H                     3.62849  -4.16825  -4.48924 
 H                     2.17597  -5.15225  -4.22518 
 
                          Input orientation:                          
 ---------------------------------------------------------------------
 Center     Atomic      Atomic             Coordinates (Angstroms)
 Number     Number       Type             X           Y           Z
 ---------------------------------------------------------------------
      1          6           0       -6.854443   -0.134877   -0.168414
      2          1           0       -7.040212   -0.818328    0.677653
      3          1           0       -6.884443   -0.743683   -1.088126
      4          1           0       -7.697052    0.572652   -0.212848
      5          6           0       -5.520363    0.569890   -0.021040
      6          1           0       -5.368713    1.273324   -0.861988
      7          1           0       -5.523451    1.199843    0.889097
      8          6           0       -4.344023   -0.388597    0.042497
      9          1           0       -4.335099   -1.020835   -0.868101
     10          1           0       -4.489260   -1.094591    0.884904
     11          6           0       -3.001393    0.302765    0.189464
     12          1           0       -3.007087    0.930311    1.102873
     13          1           0       -2.850369    1.009328   -0.649702
     14          6           0       -1.824677   -0.663624    0.246928
     15          1           0       -1.800656   -1.277687   -0.673205
     16          1           0       -1.994641   -1.373719    1.081199
     17          6           0       -0.511885    0.023005    0.428088
     18          1           0       -0.405457    0.634962    1.338635
     19          6           0        0.511885   -0.023005   -0.428088
     20          1           0        0.854242    0.919568   -0.885541
     21          6           0        1.227942   -1.260312   -0.857081
     22          1           0        0.829536   -2.132380   -0.304756
     23          1           0        2.298946   -1.188943   -0.579613
     24          6           0        1.134623   -1.515078   -2.356500
     25          1           0        1.513926   -0.629631   -2.904475
     26          1           0        0.068914   -1.602561   -2.644335
     27          6           0        1.890739   -2.750923   -2.807290
     28          1           0        2.956433   -2.657670   -2.516135
     29          1           0        1.514780   -3.635013   -2.254087
     30          6           0        1.796692   -3.013234   -4.300226
     31          1           0        0.730990   -3.103027   -4.585230
     32          1           0        2.171248   -2.127101   -4.847654
     33          6           0        2.556144   -4.250928   -4.735576
     34          1           0        2.478794   -4.427694   -5.819703
     35          1           0        3.628489   -4.168245   -4.489237
     36          1           0        2.175966   -5.152248   -4.225181
 ---------------------------------------------------------------------
                    Distance matrix (angstroms):
                    1          2          3          4          5
     1  C    0.000000
     2  H    1.103379   0.000000
     3  H    1.103365   1.774207   0.000000
     4  H    1.101164   1.777430   1.777409   0.000000
     5  C    1.515977   2.173767   2.173674   2.185125   0.000000
     6  H    2.161358   3.088594   2.533159   2.516642   1.106802
     7  H    2.161330   2.533434   3.088528   2.516385   1.106887
     8  C    2.532008   2.803128   2.803235   3.497428   1.518720
     9  H    2.760720   3.122179   2.573787   3.777735   2.157028
    10  H    2.761272   2.574224   3.122961   3.778186   2.157407
    11  C    3.894304   4.219862   4.219641   4.720583   2.541826
    12  H    4.189623   4.416407   4.757796   4.884139   2.776624
    13  H    4.192070   4.759935   4.420296   4.885884   2.777983
    14  C    5.074508   5.235577   5.233547   6.018684   3.905312
    15  H    5.205919   5.430357   5.128568   6.197029   4.204174
    16  H    5.168553   5.092062   5.386379   6.162825   4.174118
    17  C    6.372502   6.587046   6.595166   7.234607   5.058226
    18  H    6.667328   6.824143   7.054579   7.455088   5.292940
    19  C    7.371752   7.673941   7.460610   8.233334   6.074967
    20  H    7.813446   8.233241   7.917997   8.584724   6.442455
    21  C    8.189372   8.420994   8.132102   9.134020   7.041891
    22  H    7.940538   8.038955   7.877031   8.945857   6.906807
    23  H    9.223051   9.430691   9.208229  10.156658   8.034120
    24  C    8.397491   8.747541   8.155320   9.324824   7.354611
    25  H    8.818186   9.275803   8.593295   9.671217   7.696380
    26  H    7.497810   7.886083   7.176951   8.423414   6.545322
    27  C    9.501872   9.779654   9.164516  10.473921   8.585768
    28  H   10.398536  10.654406  10.126470  11.368239   9.407375
    29  H    9.308323   9.471890   8.959140  10.330970   8.494760
    30  C   10.009942  10.377272   9.530506  10.940585   9.202690
    31  H    9.265904   9.659677   8.705806  10.181367   8.567471
    32  H   10.359891  10.820948   9.902194  11.231805   9.472637
    33  C   11.240996  11.540184  10.711179  12.200411  10.521269
    34  H   11.724959  12.077029  11.118901  12.648641  11.071895
    35  H   12.034511  12.318275  11.567927  13.001212  11.230148
    36  H   11.098633  11.303034  10.553083  12.097511  10.471444
                    6          7          8          9         10
     6  H    0.000000
     7  H    1.759444   0.000000
     8  C    2.151758   2.151958   0.000000
     9  H    2.516259   3.071048   1.108600   0.000000
    10  H    3.071171   2.516743   1.108680   1.761315   0.000000
    11  C    2.766178   2.766769   1.517312   2.156185   2.156383
    12  H    3.091216   2.539771   2.156690   3.074951   2.518844
    13  H    2.541027   3.090237   2.159707   2.524615   3.076923
    14  C    4.188276   4.191160   2.542545   2.770038   2.773580
    15  H    4.390254   4.736892   2.787728   2.554870   3.112847
    16  H    4.708203   4.371799   2.751175   3.066275   2.517850
    17  C    5.178453   5.168488   3.873419   4.169733   4.156587
    18  H    5.466640   5.168659   4.270825   4.801399   4.458102
    19  C    6.037398   6.297270   4.892336   4.968152   5.280501
    20  H    6.233046   6.625923   5.440083   5.540282   5.978655
    21  C    7.066484   7.394783   5.711035   5.568204   5.978995
    22  H    7.094196   7.272513   5.470565   5.312847   5.548143
    23  H    8.058256   8.309831   6.719867   6.642442   6.945031
    24  C    7.232022   7.888894   6.086026   5.690120   6.504735
    25  H    7.427227   8.201392   6.561882   6.205719   7.114339
    26  H    6.404316   7.184230   5.307239   4.784218   5.787099
    27  C    8.525163   9.178346   7.250802   6.746459   7.555138
    28  H    9.353981   9.918893   8.061758   7.652560   8.333584
    29  H    8.568091   9.099018   7.080896   6.555606   7.235710
    30  C    9.029900   9.912799   7.965949   7.303971   8.371377
    31  H    8.379818   9.359539   7.385103   6.619504   7.823502
    32  H    9.181473  10.158113   8.329750   7.706700   8.848201
    33  C   10.407949  11.252898   9.239042   8.536984   9.549344
    34  H   10.893297  11.862255   9.860554   9.085934  10.228153
    35  H   11.122826  11.895414   9.918836   9.297180  10.209143
    36  H   10.465238  11.215432   9.133219   8.410263   9.327528
                   11         12         13         14         15
    11  C    0.000000
    12  H    1.108225   0.000000
    13  H    1.107357   1.761341   0.000000
    14  C    1.523768   2.161334   2.157489   0.000000
    15  H    2.164208   3.079803   2.516523   1.106479   0.000000
    16  H    2.149265   2.516758   3.067116   1.108662   1.767706
    17  C    2.516517   2.739447   2.757349   1.492549   2.136721
    18  H    2.858292   2.628934   3.173520   2.211862   3.106816
    19  C    3.581985   3.954215   3.524142   2.515067   2.642377
    20  H    4.049938   4.343243   3.713195   3.311433   3.452752
    21  C    4.628795   5.155165   4.671926   3.300509   3.034225
    22  H    4.566202   5.106973   4.850878   3.083253   2.790012
    23  H    5.559700   5.956172   5.599353   4.238325   4.101630
    24  C    5.185857   5.924606   5.016567   4.032402   3.392006
    25  H    5.552470   6.239536   5.178538   4.591161   4.047838
    26  H    4.592109   5.469807   4.395764   3.581437   2.736090
    27  C    6.499115   7.268394   6.424389   5.243032   4.511224
    28  H    7.181931   7.844386   7.116839   5.871094   5.284944
    29  H    6.470924   7.249734   6.572555   5.122129   4.364435
    30  C    7.360352   8.235370   7.148602   6.269896   5.395212
    31  H    6.951820   7.911735   6.725026   5.985973   5.004502
    32  H    7.617941   8.460006   7.257867   6.638068   5.824393
    33  C    8.710819   9.585524   8.578756   7.542260   6.657682
    34  H    9.408495  10.330788   9.202723   8.336192   7.397478
    35  H    9.264746  10.064683   9.139196   8.028117   7.238304
    36  H    8.720739   9.604672   8.718549   7.493507   6.591075
                   16         17         18         19         20
    16  H    0.000000
    17  C    2.139149   0.000000
    18  H    2.574214   1.102231   0.000000
    19  C    3.222584   1.335387   2.096604   0.000000
    20  H    4.152513   2.096604   2.571925   1.102231   0.000000
    21  C    3.762291   2.515067   3.328848   1.492549   2.211862
    22  H    3.236111   2.642377   3.447336   2.136721   3.106816
    23  H    4.607312   3.222584   3.784190   2.139149   2.574214
    24  C    4.650812   3.581985   4.544067   2.516517   2.858292
    25  H    5.361837   3.954215   4.825682   2.739447   2.628934
    26  H    4.265001   3.524142   4.592993   2.757349   3.173520
    27  C    5.666852   4.892336   5.824554   3.873419   4.270825
    28  H    6.253197   5.280501   6.083008   4.156587   4.458102
    29  H    5.343559   4.968152   5.901496   4.169733   4.801399
    30  C    6.783948   6.074967   7.067924   5.058226   5.292940
    31  H    6.521348   6.037398   7.096214   5.178453   5.466640
    32  H    7.285157   6.297270   7.248350   5.168488   5.168659
    33  C    7.926087   7.371752   8.339007   6.372502   6.667329
    34  H    8.772733   8.233334   9.229908   7.234607   7.455088
    35  H    8.393970   7.673941   8.561987   6.587046   6.824142
    36  H    7.734915   7.460610   8.432769   6.595166   7.054579
                   21         22         23         24         25
    21  C    0.000000
    22  H    1.106479   0.000000
    23  H    1.108662   1.767706   0.000000
    24  C    1.523768   2.164208   2.149265   0.000000
    25  H    2.161334   3.079803   2.516758   1.108225   0.000000
    26  H    2.157489   2.516523   3.067116   1.107357   1.761341
    27  C    2.542545   2.787728   2.751175   1.517312   2.156690
    28  H    2.773580   3.112847   2.517850   2.156383   2.518844
    29  H    2.770038   2.554870   3.066275   2.156185   3.074951
    30  C    3.905312   4.204174   4.174118   2.541826   2.776624
    31  H    4.188276   4.390254   4.708203   2.766178   3.091216
    32  H    4.191160   4.736892   4.371799   2.766769   2.539771
    33  C    5.074508   5.205919   5.168553   3.894304   4.189623
    34  H    6.018684   6.197029   6.162825   4.720583   4.884139
    35  H    5.235577   5.430357   5.092062   4.219862   4.416406
    36  H    5.233547   5.128568   5.386379   4.219641   4.757796
                   26         27         28         29         30
    26  H    0.000000
    27  C    2.159707   0.000000
    28  H    3.076923   1.108680   0.000000
    29  H    2.524615   1.108600   1.761315   0.000000
    30  C    2.777983   1.518720   2.157407   2.157028   0.000000
    31  H    2.541027   2.151758   3.071171   2.516259   1.106802
    32  H    3.090237   2.151958   2.516743   3.071048   1.106887
    33  C    4.192070   2.532008   2.761272   2.760720   1.515977
    34  H    4.885884   3.497428   3.778186   3.777735   2.185125
    35  H    4.759935   2.803128   2.574224   3.122179   2.173766
    36  H    4.420296   2.803235   3.122961   2.573787   2.173674
                   31         32         33         34         35
    31  H    0.000000
    32  H    1.759444   0.000000
    33  C    2.161358   2.161330   0.000000
    34  H    2.516642   2.516385   1.101164   0.000000
    35  H    3.088593   2.533433   1.103378   1.777429   0.000000
    36  H    2.533159   3.088528   1.103365   1.777409   1.774207
                   36
    36  H    0.000000
 Stoichiometry    C12H24
 Framework group  C1[X(C12H24)]
 Deg. of freedom   102
 Full point group                 C1      NOp   1
 Largest Abelian subgroup         C1      NOp   1
 Largest concise Abelian subgroup C1      NOp   1
                         Standard orientation:                         
 ---------------------------------------------------------------------
 Center     Atomic      Atomic             Coordinates (Angstroms)
 Number     Number       Type             X           Y           Z
 ---------------------------------------------------------------------
      1          6           0        5.602672   -1.923564   -0.070813
      2          1           0        5.869197   -1.794914   -1.133761
      3          1           0        5.021625   -2.858413    0.005714
      4          1           0        6.539341   -2.069873    0.489372
      5          6           0        4.806273   -0.739842    0.441763
      6          1           0        4.577486   -0.874043    1.516313
      7          1           0        5.418421    0.180727    0.386742
      8          6           0        3.509745   -0.520134   -0.318010
      9          1           0        2.891723   -1.438916   -0.264328
     10          1           0        3.732888   -0.382672   -1.395267
     11          6           0        2.701248    0.661425    0.184470
     12          1           0        3.316084    1.581566    0.125463
     13          1           0        2.474856    0.529619    1.260394
     14          6           0        1.399014    0.873363   -0.577856
     15          1           0        0.770912   -0.034519   -0.503468
     16          1           0        1.637851    0.989674   -1.654220
     17          6           0        0.628091    2.059076   -0.100926
     18          1           0        1.142746    3.031545   -0.166868
     19          6           0       -0.602125    2.026723    0.417516
     20          1           0       -0.742325    2.373514    1.454335
     21          6           0       -1.822909    1.523676   -0.278423
     22          1           0       -1.570749    1.244445   -1.318971
     23          1           0       -2.572363    2.336990   -0.355695
     24          6           0       -2.468769    0.339017    0.429616
     25          1           0       -2.698387    0.617217    1.477491
     26          1           0       -1.733872   -0.486287    0.500602
     27          6           0       -3.731585   -0.155824   -0.250578
     28          1           0       -4.463001    0.674549   -0.319013
     29          1           0       -3.502059   -0.427995   -1.300452
     30          6           0       -4.376809   -1.340251    0.447510
     31          1           0       -3.641552   -2.164788    0.514941
     32          1           0       -4.601998   -1.063967    1.495440
     33          6           0       -5.636556   -1.823786   -0.243442
     34          1           0       -6.092640   -2.682120    0.274064
     35          1           0       -6.396198   -1.025065   -0.292748
     36          1           0       -5.427743   -2.135550   -1.281043
 ---------------------------------------------------------------------
 Rotational constants (GHZ):      1.3853103      0.2248663      0.1996627
 Standard basis: STO-3G (5D, 7F)
 There are    84 symmetry adapted cartesian basis functions of A   symmetry.
 There are    84 symmetry adapted basis functions of A   symmetry.
    84 basis functions,   252 primitive gaussians,    84 cartesian basis functions
    48 alpha electrons       48 beta electrons
       nuclear repulsion energy       668.1075809097 Hartrees.
 NAtoms=   36 NActive=   36 NUniq=   36 SFac= 1.00D+00 NAtFMM=   60 NAOKFM=F Big=F
 Integral buffers will be    131072 words long.
 Raffenetti 1 integral format.
 Two-electron integral symmetry is turned on.
 One-electron integrals computed using PRISM.
 NBasis=    84 RedAO= T EigKep=  1.87D-01  NBF=    84
 NBsUse=    84 1.00D-06 EigRej= -1.00D+00 NBFU=    84
 ExpMin= 1.69D-01 ExpMax= 7.16D+01 ExpMxC= 7.16D+01 IAcc=1 IRadAn=         1 AccDes= 0.00D+00
 Harris functional with IExCor=  205 and IRadAn=       1 diagonalized for initial guess.
 HarFok:  IExCor=  205 AccDes= 0.00D+00 IRadAn=         1 IDoV= 1 UseB2=F ITyADJ=14
 ICtDFT=  3500011 ScaDFX=  1.000000  1.000000  1.000000  1.000000
 FoFCou: FMM=F IPFlag=           0 FMFlag=      100000 FMFlg1=           0
         NFxFlg=           0 DoJE=T BraDBF=F KetDBF=T FulRan=T
         wScrn=  0.000000 ICntrl=     500 IOpCl=  0 I1Cent=   200000004 NGrid=           0
         NMat0=    1 NMatS0=      1 NMatT0=    0 NMatD0=    1 NMtDS0=    0 NMtDT0=    0
 Petite list used in FoFCou.
 Keep R1 ints in memory in canonical form, NReq=7312136.
 Requested convergence on RMS density matrix=1.00D-08 within 128 cycles.
 Requested convergence on MAX density matrix=1.00D-06.
 Requested convergence on             energy=1.00D-06.
 No special actions if energy rises.
 SCF Done:  E(RHF) =  -462.776315982     A.U. after   12 cycles
            NFock= 12  Conv=0.30D-08     -V/T= 2.0084

 **********************************************************************

            Population analysis using the SCF density.

 **********************************************************************

 Orbital symmetries:
       Occupied  (A) (A) (A) (A) (A) (A) (A) (A) (A) (A) (A) (A)
                 (A) (A) (A) (A) (A) (A) (A) (A) (A) (A) (A) (A)
                 (A) (A) (A) (A) (A) (A) (A) (A) (A) (A) (A) (A)
                 (A) (A) (A) (A) (A) (A) (A) (A) (A) (A) (A) (A)
       Virtual   (A) (A) (A) (A) (A) (A) (A) (A) (A) (A) (A) (A)
                 (A) (A) (A) (A) (A) (A) (A) (A) (A) (A) (A) (A)
                 (A) (A) (A) (A) (A) (A) (A) (A) (A) (A) (A) (A)
 The electronic state is 1-A.
 Alpha  occ. eigenvalues --  -11.04241 -11.04176 -11.04171 -11.04133 -11.03958
 Alpha  occ. eigenvalues --  -11.03887 -11.03488 -11.03459 -11.03455 -11.03273
 Alpha  occ. eigenvalues --  -11.00041 -10.99963  -1.05729  -1.04502  -1.01690
 Alpha  occ. eigenvalues --   -0.98461  -0.94336  -0.89273  -0.85025  -0.79101
 Alpha  occ. eigenvalues --   -0.76919  -0.75144  -0.74870  -0.67658  -0.62486
 Alpha  occ. eigenvalues --   -0.61430  -0.58841  -0.56501  -0.56315  -0.54884
 Alpha  occ. eigenvalues --   -0.54079  -0.52656  -0.51992  -0.50824  -0.49839
 Alpha  occ. eigenvalues --   -0.48015  -0.47265  -0.46289  -0.45425  -0.43766
 Alpha  occ. eigenvalues --   -0.43328  -0.42699  -0.42203  -0.41860  -0.41601
 Alpha  occ. eigenvalues --   -0.41046  -0.40489  -0.21238
 Alpha virt. eigenvalues --    0.24119   0.57427   0.57776   0.58242   0.58414
 Alpha virt. eigenvalues --    0.62568   0.63141   0.66246   0.66462   0.67008
 Alpha virt. eigenvalues --    0.67208   0.68635   0.68706   0.69450   0.69889
 Alpha virt. eigenvalues --    0.71961   0.72679   0.73467   0.74098   0.74216
 Alpha virt. eigenvalues --    0.74999   0.75569   0.76206   0.76562   0.77798
 Alpha virt. eigenvalues --    0.78227   0.78675   0.79210   0.80317   0.80680
 Alpha virt. eigenvalues --    0.81143   0.81407   0.82136   0.83159   0.91152
 Alpha virt. eigenvalues --    1.06528
          Condensed to atoms (all electrons):
               1          2          3          4          5          6
     1  C    4.726017   0.380233   0.380235   0.381642   0.368795  -0.022155
     2  H    0.380233   0.633451  -0.021855  -0.021523  -0.021009   0.001879
     3  H    0.380235  -0.021855   0.633460  -0.021523  -0.021014  -0.002226
     4  H    0.381642  -0.021523  -0.021523   0.628647  -0.019412  -0.002126
     5  C    0.368795  -0.021009  -0.021014  -0.019412   4.725514   0.379352
     6  H   -0.022155   0.001879  -0.002226  -0.002126   0.379352   0.645746
     7  H   -0.022166  -0.002222   0.001879  -0.002129   0.379323  -0.023849
     8  C   -0.022835  -0.002133  -0.002132   0.001240   0.368046  -0.023054
     9  H   -0.002220  -0.000006   0.000394   0.000010  -0.022671  -0.002345
    10  H   -0.002208   0.000394  -0.000006   0.000009  -0.022671   0.001943
    11  C    0.000715   0.000008   0.000008  -0.000015  -0.021581  -0.002199
    12  H    0.000007   0.000002  -0.000001  -0.000000  -0.002163   0.000002
    13  H    0.000007  -0.000001   0.000002  -0.000000  -0.002169   0.000385
    14  C   -0.000005  -0.000000  -0.000000   0.000000   0.000684   0.000006
    15  H   -0.000000   0.000000  -0.000000   0.000000   0.000005   0.000002
    16  H   -0.000000  -0.000000   0.000000   0.000000   0.000012  -0.000001
    17  C    0.000000   0.000000   0.000000  -0.000000  -0.000004  -0.000000
    18  H    0.000000  -0.000000  -0.000000  -0.000000  -0.000000  -0.000000
    19  C    0.000000  -0.000000  -0.000000  -0.000000  -0.000000  -0.000000
    20  H    0.000000   0.000000   0.000000  -0.000000  -0.000000   0.000000
    21  C   -0.000000  -0.000000  -0.000000   0.000000   0.000000  -0.000000
    22  H    0.000000   0.000000   0.000000  -0.000000  -0.000000  -0.000000
    23  H    0.000000   0.000000   0.000000  -0.000000  -0.000000  -0.000000
    24  C   -0.000000  -0.000000   0.000000   0.000000   0.000000   0.000000
    25  H   -0.000000   0.000000  -0.000000   0.000000   0.000000   0.000000
    26  H    0.000000   0.000000   0.000000  -0.000000  -0.000000  -0.000000
    27  C    0.000000   0.000000   0.000000  -0.000000  -0.000000  -0.000000
    28  H    0.000000  -0.000000   0.000000  -0.000000  -0.000000  -0.000000
    29  H    0.000000   0.000000  -0.000000  -0.000000  -0.000000  -0.000000
    30  C   -0.000000  -0.000000  -0.000000   0.000000   0.000000   0.000000
    31  H   -0.000000  -0.000000  -0.000000   0.000000   0.000000   0.000000
    32  H   -0.000000  -0.000000  -0.000000   0.000000   0.000000   0.000000
    33  C    0.000000   0.000000   0.000000   0.000000   0.000000  -0.000000
    34  H    0.000000   0.000000  -0.000000   0.000000   0.000000   0.000000
    35  H    0.000000   0.000000  -0.000000   0.000000   0.000000  -0.000000
    36  H    0.000000   0.000000   0.000000   0.000000  -0.000000  -0.000000
               7          8          9         10         11         12
     1  C   -0.022166  -0.022835  -0.002220  -0.002208   0.000715   0.000007
     2  H   -0.002222  -0.002133  -0.000006   0.000394   0.000008   0.000002
     3  H    0.001879  -0.002132   0.000394  -0.000006   0.000008  -0.000001
     4  H   -0.002129   0.001240   0.000010   0.000009  -0.000015  -0.000000
     5  C    0.379323   0.368046  -0.022671  -0.022671  -0.021581  -0.002163
     6  H   -0.023849  -0.023054  -0.002345   0.001943  -0.002199   0.000002
     7  H    0.645914  -0.023059   0.001945  -0.002345  -0.002191   0.000393
     8  C   -0.023059   4.737820   0.378343   0.378470   0.369134  -0.022652
     9  H    0.001945   0.378343   0.648738  -0.023813  -0.022810   0.001932
    10  H   -0.002345   0.378470  -0.023813   0.648336  -0.022805  -0.002342
    11  C   -0.002191   0.369134  -0.022810  -0.022805   4.737160   0.378489
    12  H    0.000393  -0.022652   0.001932  -0.002342   0.378489   0.645743
    13  H    0.000003  -0.022489  -0.002273   0.001921   0.378151  -0.023695
    14  C    0.000006  -0.021399  -0.002170  -0.002194   0.366298  -0.022482
    15  H   -0.000001  -0.001982   0.000383  -0.000000  -0.022526   0.001886
    16  H    0.000002  -0.002590  -0.000005   0.000433  -0.023690  -0.002212
    17  C   -0.000000   0.000690   0.000007   0.000007  -0.022169  -0.002268
    18  H   -0.000000   0.000013  -0.000000   0.000001  -0.002698   0.000411
    19  C    0.000000  -0.000000   0.000001  -0.000000  -0.000173   0.000011
    20  H   -0.000000   0.000000   0.000000   0.000000  -0.000027  -0.000001
    21  C   -0.000000  -0.000000  -0.000000   0.000000   0.000004  -0.000000
    22  H   -0.000000   0.000000  -0.000000   0.000000  -0.000002  -0.000000
    23  H   -0.000000   0.000000   0.000000  -0.000000  -0.000001   0.000000
    24  C    0.000000  -0.000000  -0.000000  -0.000000   0.000002  -0.000000
    25  H    0.000000  -0.000000   0.000000  -0.000000   0.000000   0.000000
    26  H   -0.000000   0.000000   0.000000   0.000000  -0.000001  -0.000000
    27  C   -0.000000   0.000000   0.000000   0.000000  -0.000000   0.000000
    28  H    0.000000   0.000000  -0.000000  -0.000000   0.000000  -0.000000
    29  H   -0.000000   0.000000   0.000000  -0.000000  -0.000000   0.000000
    30  C    0.000000  -0.000000  -0.000000  -0.000000   0.000000   0.000000
    31  H    0.000000  -0.000000  -0.000000  -0.000000   0.000000  -0.000000
    32  H    0.000000  -0.000000  -0.000000  -0.000000   0.000000  -0.000000
    33  C    0.000000   0.000000   0.000000   0.000000  -0.000000   0.000000
    34  H    0.000000  -0.000000  -0.000000  -0.000000   0.000000  -0.000000
    35  H    0.000000   0.000000   0.000000   0.000000  -0.000000   0.000000
    36  H   -0.000000   0.000000   0.000000   0.000000  -0.000000  -0.000000
              13         14         15         16         17         18
     1  C    0.000007  -0.000005  -0.000000  -0.000000   0.000000   0.000000
     2  H   -0.000001  -0.000000   0.000000  -0.000000   0.000000  -0.000000
     3  H    0.000002  -0.000000  -0.000000   0.000000   0.000000  -0.000000
     4  H   -0.000000   0.000000   0.000000   0.000000  -0.000000  -0.000000
     5  C   -0.002169   0.000684   0.000005   0.000012  -0.000004  -0.000000
     6  H    0.000385   0.000006   0.000002  -0.000001  -0.000000  -0.000000
     7  H    0.000003   0.000006  -0.000001   0.000002  -0.000000  -0.000000
     8  C   -0.022489  -0.021399  -0.001982  -0.002590   0.000690   0.000013
     9  H   -0.002273  -0.002170   0.000383  -0.000005   0.000007  -0.000000
    10  H    0.001921  -0.002194  -0.000000   0.000433   0.000007   0.000001
    11  C    0.378151   0.366298  -0.022526  -0.023690  -0.022169  -0.002698
    12  H   -0.023695  -0.022482   0.001886  -0.002212  -0.002268   0.000411
    13  H    0.645818  -0.023102  -0.002403   0.002003  -0.001405   0.000043
    14  C   -0.023102   4.731749   0.379701   0.369948   0.376944  -0.026597
    15  H   -0.002403   0.379701   0.640821  -0.022534  -0.022635   0.001682
    16  H    0.002003   0.369948  -0.022534   0.657583  -0.025264  -0.000038
    17  C   -0.001405   0.376944  -0.022635  -0.025264   4.882361   0.379070
    18  H    0.000043  -0.026597   0.001682  -0.000038   0.379070   0.633239
    19  C    0.000122  -0.028186  -0.004354   0.001445   0.557570  -0.031267
    20  H   -0.000021   0.001739   0.000035  -0.000041  -0.031340  -0.003329
    21  C    0.000002  -0.001924   0.000131   0.000054  -0.027844   0.001701
    22  H   -0.000000   0.000112   0.000026  -0.000055  -0.004278   0.000038
    23  H    0.000000   0.000004  -0.000004   0.000010   0.000026  -0.000047
    24  C   -0.000000   0.000002  -0.000122  -0.000009   0.000855  -0.000019
    25  H   -0.000000   0.000002  -0.000002  -0.000000   0.000010  -0.000001
    26  H    0.000000  -0.000037   0.000007   0.000001   0.000055  -0.000003
    27  C    0.000000  -0.000000   0.000002   0.000000  -0.000008   0.000000
    28  H    0.000000  -0.000000   0.000000   0.000000  -0.000000   0.000000
    29  H    0.000000   0.000000   0.000000   0.000000  -0.000000   0.000000
    30  C   -0.000000   0.000000  -0.000000  -0.000000   0.000000  -0.000000
    31  H   -0.000000  -0.000000  -0.000000  -0.000000   0.000000  -0.000000
    32  H   -0.000000   0.000000  -0.000000  -0.000000   0.000000  -0.000000
    33  C    0.000000  -0.000000   0.000000   0.000000  -0.000000   0.000000
    34  H   -0.000000   0.000000  -0.000000  -0.000000   0.000000  -0.000000
    35  H    0.000000  -0.000000  -0.000000   0.000000  -0.000000   0.000000
    36  H    0.000000  -0.000000   0.000000   0.000000  -0.000000   0.000000
              19         20         21         22         23         24
     1  C    0.000000   0.000000  -0.000000   0.000000   0.000000  -0.000000
     2  H   -0.000000   0.000000  -0.000000   0.000000   0.000000  -0.000000
     3  H   -0.000000   0.000000  -0.000000   0.000000   0.000000   0.000000
     4  H   -0.000000  -0.000000   0.000000  -0.000000  -0.000000   0.000000
     5  C   -0.000000  -0.000000   0.000000  -0.000000  -0.000000   0.000000
     6  H   -0.000000   0.000000  -0.000000  -0.000000  -0.000000   0.000000
     7  H    0.000000  -0.000000  -0.000000  -0.000000  -0.000000   0.000000
     8  C   -0.000000   0.000000  -0.000000   0.000000   0.000000  -0.000000
     9  H    0.000001   0.000000  -0.000000  -0.000000   0.000000  -0.000000
    10  H   -0.000000   0.000000   0.000000   0.000000  -0.000000  -0.000000
    11  C   -0.000173  -0.000027   0.000004  -0.000002  -0.000001   0.000002
    12  H    0.000011  -0.000001  -0.000000  -0.000000   0.000000  -0.000000
    13  H    0.000122  -0.000021   0.000002  -0.000000   0.000000  -0.000000
    14  C   -0.028186   0.001739  -0.001924   0.000112   0.000004   0.000002
    15  H   -0.004354   0.000035   0.000131   0.000026  -0.000004  -0.000122
    16  H    0.001445  -0.000041   0.000054  -0.000055   0.000010  -0.000009
    17  C    0.557570  -0.031340  -0.027844  -0.004278   0.000026   0.000855
    18  H   -0.031267  -0.003329   0.001701   0.000038  -0.000047  -0.000019
    19  C    4.882912   0.379503   0.376815  -0.022451  -0.022161  -0.024781
    20  H    0.379503   0.632939  -0.026688   0.001686  -0.003059  -0.000234
    21  C    0.376815  -0.026688   4.729877   0.379684   0.380009   0.357384
    22  H   -0.022451   0.001686   0.379684   0.639756  -0.023586  -0.021661
    23  H   -0.022161  -0.003059   0.380009  -0.023586   0.635281  -0.023556
    24  C   -0.024781  -0.000234   0.357384  -0.021661  -0.023556   4.746620
    25  H   -0.002480   0.000428  -0.022358   0.001884  -0.002305   0.378870
    26  H   -0.002349  -0.000014  -0.022546  -0.002417   0.001908   0.379463
    27  C    0.000785  -0.000016  -0.021988  -0.002034  -0.002226   0.367776
    28  H    0.000007   0.000001  -0.002235  -0.000001   0.000452  -0.022743
    29  H    0.000009  -0.000001  -0.002232   0.000371   0.000007  -0.022778
    30  C   -0.000005   0.000000   0.000702   0.000006   0.000005  -0.021725
    31  H   -0.000000   0.000000   0.000007   0.000002  -0.000001  -0.002214
    32  H   -0.000000  -0.000000   0.000007  -0.000001   0.000002  -0.002205
    33  C    0.000000  -0.000000  -0.000005  -0.000000  -0.000000   0.000719
    34  H   -0.000000   0.000000   0.000000   0.000000   0.000000  -0.000015
    35  H    0.000000  -0.000000  -0.000000   0.000000  -0.000000   0.000008
    36  H    0.000000  -0.000000  -0.000000  -0.000000   0.000000   0.000008
              25         26         27         28         29         30
     1  C   -0.000000   0.000000   0.000000   0.000000   0.000000  -0.000000
     2  H    0.000000   0.000000   0.000000  -0.000000   0.000000  -0.000000
     3  H   -0.000000   0.000000   0.000000   0.000000  -0.000000  -0.000000
     4  H    0.000000  -0.000000  -0.000000  -0.000000  -0.000000   0.000000
     5  C    0.000000  -0.000000  -0.000000  -0.000000  -0.000000   0.000000
     6  H    0.000000  -0.000000  -0.000000  -0.000000  -0.000000   0.000000
     7  H    0.000000  -0.000000  -0.000000   0.000000  -0.000000   0.000000
     8  C   -0.000000   0.000000   0.000000   0.000000   0.000000  -0.000000
     9  H    0.000000   0.000000   0.000000  -0.000000   0.000000  -0.000000
    10  H   -0.000000   0.000000   0.000000  -0.000000  -0.000000  -0.000000
    11  C    0.000000  -0.000001  -0.000000   0.000000  -0.000000   0.000000
    12  H    0.000000  -0.000000   0.000000  -0.000000   0.000000   0.000000
    13  H   -0.000000   0.000000   0.000000   0.000000   0.000000  -0.000000
    14  C    0.000002  -0.000037  -0.000000  -0.000000   0.000000   0.000000
    15  H   -0.000002   0.000007   0.000002   0.000000   0.000000  -0.000000
    16  H   -0.000000   0.000001   0.000000   0.000000   0.000000  -0.000000
    17  C    0.000010   0.000055  -0.000008  -0.000000  -0.000000   0.000000
    18  H   -0.000001  -0.000003   0.000000   0.000000   0.000000  -0.000000
    19  C   -0.002480  -0.002349   0.000785   0.000007   0.000009  -0.000005
    20  H    0.000428  -0.000014  -0.000016   0.000001  -0.000001   0.000000
    21  C   -0.022358  -0.022546  -0.021988  -0.002235  -0.002232   0.000702
    22  H    0.001884  -0.002417  -0.002034  -0.000001   0.000371   0.000006
    23  H   -0.002305   0.001908  -0.002226   0.000452   0.000007   0.000005
    24  C    0.378870   0.379463   0.367776  -0.022743  -0.022778  -0.021725
    25  H    0.650478  -0.023987  -0.022867  -0.002339   0.001934  -0.002150
    26  H   -0.023987   0.649693  -0.022701   0.001924  -0.002284  -0.002149
    27  C   -0.022867  -0.022701   4.741552   0.378382   0.378448   0.367768
    28  H   -0.002339   0.001924   0.378382   0.651402  -0.023937  -0.022764
    29  H    0.001934  -0.002284   0.378448  -0.023937   0.650967  -0.022797
    30  C   -0.002150  -0.002149   0.367768  -0.022764  -0.022797   4.726511
    31  H    0.000004   0.000388  -0.023021   0.001946  -0.002346   0.379343
    32  H    0.000392   0.000004  -0.023020  -0.002345   0.001947   0.379308
    33  C    0.000007   0.000007  -0.022890  -0.002208  -0.002213   0.368675
    34  H   -0.000000  -0.000000   0.001242   0.000009   0.000009  -0.019437
    35  H    0.000002  -0.000001  -0.002137   0.000393  -0.000005  -0.020995
    36  H   -0.000001   0.000002  -0.002135  -0.000005   0.000393  -0.021000
              31         32         33         34         35         36
     1  C   -0.000000  -0.000000   0.000000   0.000000   0.000000   0.000000
     2  H   -0.000000  -0.000000   0.000000   0.000000   0.000000   0.000000
     3  H   -0.000000  -0.000000   0.000000  -0.000000  -0.000000   0.000000
     4  H    0.000000   0.000000   0.000000   0.000000   0.000000   0.000000
     5  C    0.000000   0.000000   0.000000   0.000000   0.000000  -0.000000
     6  H    0.000000   0.000000  -0.000000   0.000000  -0.000000  -0.000000
     7  H    0.000000   0.000000   0.000000   0.000000   0.000000  -0.000000
     8  C   -0.000000  -0.000000   0.000000  -0.000000   0.000000   0.000000
     9  H   -0.000000  -0.000000   0.000000  -0.000000   0.000000   0.000000
    10  H   -0.000000  -0.000000   0.000000  -0.000000   0.000000   0.000000
    11  C    0.000000   0.000000  -0.000000   0.000000  -0.000000  -0.000000
    12  H   -0.000000  -0.000000   0.000000  -0.000000   0.000000  -0.000000
    13  H   -0.000000  -0.000000   0.000000  -0.000000   0.000000   0.000000
    14  C   -0.000000   0.000000  -0.000000   0.000000  -0.000000  -0.000000
    15  H   -0.000000  -0.000000   0.000000  -0.000000  -0.000000   0.000000
    16  H   -0.000000  -0.000000   0.000000  -0.000000   0.000000   0.000000
    17  C    0.000000   0.000000  -0.000000   0.000000  -0.000000  -0.000000
    18  H   -0.000000  -0.000000   0.000000  -0.000000   0.000000   0.000000
    19  C   -0.000000  -0.000000   0.000000  -0.000000   0.000000   0.000000
    20  H    0.000000  -0.000000  -0.000000   0.000000  -0.000000  -0.000000
    21  C    0.000007   0.000007  -0.000005   0.000000  -0.000000  -0.000000
    22  H    0.000002  -0.000001  -0.000000   0.000000   0.000000  -0.000000
    23  H   -0.000001   0.000002  -0.000000   0.000000  -0.000000   0.000000
    24  C   -0.002214  -0.002205   0.000719  -0.000015   0.000008   0.000008
    25  H    0.000004   0.000392   0.000007  -0.000000   0.000002  -0.000001
    26  H    0.000388   0.000004   0.000007  -0.000000  -0.000001   0.000002
    27  C   -0.023021  -0.023020  -0.022890   0.001242  -0.002137  -0.002135
    28  H    0.001946  -0.002345  -0.002208   0.000009   0.000393  -0.000005
    29  H   -0.002346   0.001947  -0.002213   0.000009  -0.000005   0.000393
    30  C    0.379343   0.379308   0.368675  -0.019437  -0.020995  -0.021000
    31  H    0.646924  -0.023891  -0.022217  -0.002124   0.001880  -0.002226
    32  H   -0.023891   0.646976  -0.022223  -0.002127  -0.002222   0.001881
    33  C   -0.022217  -0.022223   4.726485   0.381547   0.380227   0.380227
    34  H   -0.002124  -0.002127   0.381547   0.629668  -0.021565  -0.021565
    35  H    0.001880  -0.002222   0.380227  -0.021565   0.634032  -0.021874
    36  H   -0.002226   0.001881   0.380227  -0.021565  -0.021874   0.634022
 Mulliken charges:
               1
     1  C   -0.166064
     2  H    0.052783
     3  H    0.052780
     4  H    0.055182
     5  C   -0.089036
     6  H    0.048639
     7  H    0.048497
     8  C   -0.089434
     9  H    0.046561
    10  H    0.046868
    11  C   -0.087083
    12  H    0.048941
    13  H    0.049101
    14  C   -0.099102
    15  H    0.051881
    16  H    0.044945
    17  C   -0.060379
    18  H    0.047800
    19  C   -0.060973
    20  H    0.048440
    21  C   -0.098557
    22  H    0.052920
    23  H    0.059241
    24  C   -0.089645
    25  H    0.044478
    26  H    0.045035
    27  C   -0.090912
    28  H    0.044062
    29  H    0.044510
    30  C   -0.089297
    31  H    0.047547
    32  H    0.047518
    33  C   -0.166138
    34  H    0.054357
    35  H    0.052258
    36  H    0.052274
 Sum of Mulliken charges =  -0.00000
 Mulliken charges with hydrogens summed into heavy atoms:
               1
     1  C   -0.005318
     5  C    0.008100
     8  C    0.003994
    11  C    0.010960
    14  C   -0.002276
    17  C   -0.012579
    19  C   -0.012534
    21  C    0.013604
    24  C   -0.000132
    27  C   -0.002339
    30  C    0.005769
    33  C   -0.007249
 Electronic spatial extent (au):  <R**2>=           5608.1938
 Charge=             -0.0000 electrons
 Dipole moment (field-independent basis, Debye):
    X=              0.1405    Y=             -0.1139    Z=             -0.0148  Tot=              0.1815
 Quadrupole moment (field-independent basis, Debye-Ang):
   XX=            -75.5126   YY=            -76.3858   ZZ=            -75.4334
   XY=             -0.2561   XZ=             -0.4527   YZ=             -0.1423
 Traceless Quadrupole moment (field-independent basis, Debye-Ang):
   XX=              0.2646   YY=             -0.6085   ZZ=              0.3439
   XY=             -0.2561   XZ=             -0.4527   YZ=             -0.1423
 Octapole moment (field-independent basis, Debye-Ang**2):
  XXX=              4.5499  YYY=             -1.0937  ZZZ=              0.1378  XYY=             -0.3245
  XXY=              8.3721  XXZ=              1.2017  XZZ=              0.2260  YZZ=              0.1616
  YYZ=              0.1735  XYZ=             -1.3644
 Hexadecapole moment (field-independent basis, Debye-Ang**3):
 XXXX=          -6244.7645 YYYY=           -979.4179 ZZZZ=           -200.5366 XXXY=            -11.4609
 XXXZ=             -9.5631 YYYX=              8.6029 YYYZ=             -4.0039 ZZZX=             -3.4948
 ZZZY=              3.3555 XXYY=          -1200.9675 XXZZ=          -1065.4209 YYZZ=           -198.9336
 XXYZ=             -8.7167 YYXZ=             -1.1166 ZZXY=             -0.7109
 N-N= 6.681075809097D+02 E-N=-2.411754461066D+03  KE= 4.589071203306D+02
 1\1\GINC-CN0005\SP\RHF\STO-3G\C12H24\GRAHA682\04-Dec-2017\0\\# hf/sto-
 3g geom=connectivity\\Title Card Required\\0,1\C,0,-6.854443,-0.134877
 ,-0.168414\H,0,-7.040212,-0.818328,0.677653\H,0,-6.884443,-0.743683,-1
 .088126\H,0,-7.697052,0.572652,-0.212848\C,0,-5.520363,0.56989,-0.0210
 4\H,0,-5.368713,1.273324,-0.861988\H,0,-5.523451,1.199843,0.889097\C,0
 ,-4.344023,-0.388597,0.042497\H,0,-4.335099,-1.020835,-0.868101\H,0,-4
 .48926,-1.094591,0.884904\C,0,-3.001393,0.302765,0.189464\H,0,-3.00708
 7,0.930311,1.102873\H,0,-2.850369,1.009328,-0.649702\C,0,-1.824677,-0.
 663624,0.246928\H,0,-1.800656,-1.277687,-0.673205\H,0,-1.994641,-1.373
 719,1.081199\C,0,-0.511885,0.023005,0.428088\H,0,-0.405457,0.634962,1.
 338635\C,0,0.511885,-0.023005,-0.428088\H,0,0.85424161,0.91956752,-0.8
 8554088\C,0,1.22794244,-1.2603116,-0.85708136\H,0,0.82953602,-2.132380
 16,-0.30475551\H,0,2.29894587,-1.18894282,-0.57961256\C,0,1.13462344,-
 1.51507784,-2.35649995\H,0,1.51392552,-0.62963113,-2.90447479\H,0,0.06
 891396,-1.60256091,-2.64433517\C,0,1.89073875,-2.75092326,-2.80729007\
 H,0,2.9564327,-2.65766979,-2.51613529\H,0,1.51477978,-3.63501304,-2.25
 408723\C,0,1.79669194,-3.01323362,-4.30022627\H,0,0.73098993,-3.103027
 33,-4.58522974\H,0,2.17124832,-2.12710146,-4.84765384\C,0,2.55614414,-
 4.2509283,-4.73557596\H,0,2.4787938,-4.42769445,-5.81970337\H,0,3.6284
 8935,-4.16824546,-4.4892374\H,0,2.17596555,-5.15224755,-4.22518129\\Ve
 rsion=ES64L-G09RevE.01\State=1-A\HF=-462.776316\RMSD=2.978e-09\Dipole=
 -0.070985,-0.0068881,-0.003248\Quadrupole=0.1884395,-0.2655183,0.07707
 87,0.0353139,-0.322032,-0.3926238\PG=C01 [X(C12H24)]\\@


 A SCIENTIST IS SOMEONE WHOSE CURIOSITY SURVIVES
 EDUCATION'S ASSAULTS ON IT.
                          - SIR HERMANN BONDI
 Job cpu time:       0 days  0 hours  0 minutes 45.4 seconds.
 File lengths (MBytes):  RWF=      5 Int=      0 D2E=      0 Chk=      2 Scr=      1
 Normal termination of Gaussian 09 at Mon Dec  4 11:09:07 2017.
44.86user 0.53system 0:02.28elapsed 1990%CPU (0avgtext+0avgdata 430432maxresident)k
0inputs+15968outputs (0major+24876minor)pagefaults 0swaps
