 Entering Gaussian System, Link 0=g09
 Initial command:
 /panfs/roc/msisoft/gaussian/g09.e01_mesabi/g09/l1.exe "/scratch/graha682/4575949.mesabim3.msi.umn.edu/Gau-11656.inp" -scrdir="/scratch/graha682/4575949.mesabim3.msi.umn.edu/"
 Entering Link 1 = /panfs/roc/msisoft/gaussian/g09.e01_mesabi/g09/l1.exe PID=     11657.
  
 Copyright (c) 1988,1990,1992,1993,1995,1998,2003,2009,2015,
            Gaussian, Inc.  All Rights Reserved.
  
 This is part of the Gaussian(R) 09 program.  It is based on
 the Gaussian(R) 03 system (copyright 2003, Gaussian, Inc.),
 the Gaussian(R) 98 system (copyright 1998, Gaussian, Inc.),
 the Gaussian(R) 94 system (copyright 1995, Gaussian, Inc.),
 the Gaussian 92(TM) system (copyright 1992, Gaussian, Inc.),
 the Gaussian 90(TM) system (copyright 1990, Gaussian, Inc.),
 the Gaussian 88(TM) system (copyright 1988, Gaussian, Inc.),
 the Gaussian 86(TM) system (copyright 1986, Carnegie Mellon
 University), and the Gaussian 82(TM) system (copyright 1983,
 Carnegie Mellon University). Gaussian is a federally registered
 trademark of Gaussian, Inc.
  
 This software contains proprietary and confidential information,
 including trade secrets, belonging to Gaussian, Inc.
  
 This software is provided under written license and may be
 used, copied, transmitted, or stored only in accord with that
 written license.
  
 The following legend is applicable only to US Government
 contracts under FAR:
  
                    RESTRICTED RIGHTS LEGEND
  
 Use, reproduction and disclosure by the US Government is
 subject to restrictions as set forth in subparagraphs (a)
 and (c) of the Commercial Computer Software - Restricted
 Rights clause in FAR 52.227-19.
  
 Gaussian, Inc.
 340 Quinnipiac St., Bldg. 40, Wallingford CT 06492
  
  
 ---------------------------------------------------------------
 Warning -- This program may not be used in any manner that
 competes with the business of Gaussian, Inc. or will provide
 assistance to any competitor of Gaussian, Inc.  The licensee
 of this program is prohibited from giving any competitor of
 Gaussian, Inc. access to this program.  By using this program,
 the user acknowledges that Gaussian, Inc. is engaged in the
 business of creating and licensing software in the field of
 computational chemistry and represents and warrants to the
 licensee that it is not a competitor of Gaussian, Inc. and that
 it will not use this program in any manner prohibited above.
 ---------------------------------------------------------------
  

 Cite this work as:
 Gaussian 09, Revision E.01,
 M. J. Frisch, G. W. Trucks, H. B. Schlegel, G. E. Scuseria, 
 M. A. Robb, J. R. Cheeseman, G. Scalmani, V. Barone, B. Mennucci, 
 G. A. Petersson, H. Nakatsuji, M. Caricato, X. Li, H. P. Hratchian, 
 A. F. Izmaylov, J. Bloino, G. Zheng, J. L. Sonnenberg, M. Hada, 
 M. Ehara, K. Toyota, R. Fukuda, J. Hasegawa, M. Ishida, T. Nakajima, 
 Y. Honda, O. Kitao, H. Nakai, T. Vreven, J. A. Montgomery, Jr., 
 J. E. Peralta, F. Ogliaro, M. Bearpark, J. J. Heyd, E. Brothers, 
 K. N. Kudin, V. N. Staroverov, T. Keith, R. Kobayashi, J. Normand, 
 K. Raghavachari, A. Rendell, J. C. Burant, S. S. Iyengar, J. Tomasi, 
 M. Cossi, N. Rega, J. M. Millam, M. Klene, J. E. Knox, J. B. Cross, 
 V. Bakken, C. Adamo, J. Jaramillo, R. Gomperts, R. E. Stratmann, 
 O. Yazyev, A. J. Austin, R. Cammi, C. Pomelli, J. W. Ochterski, 
 R. L. Martin, K. Morokuma, V. G. Zakrzewski, G. A. Voth, 
 P. Salvador, J. J. Dannenberg, S. Dapprich, A. D. Daniels, 
 O. Farkas, J. B. Foresman, J. V. Ortiz, J. Cioslowski, 
 and D. J. Fox, Gaussian, Inc., Wallingford CT, 2013.
 
 ******************************************
 Gaussian 09:  ES64L-G09RevE.01 30-Nov-2015
                 4-Dec-2017 
 ******************************************
 %LindaWorkers=in-cn0161
 %NProcShared=24
 Will use up to   24 processors via shared memory.
 %Mem=59800mb
 %chk=20171201_def2svp_m06_15c12h24.chk
 SetLPE:  input flags=" -workerwait 900 -opt "Tsnet.Node.lindarsharg: ssh " "
 SetLPE:    new flags=" -workerwait 900 -opt "Tsnet.Node.lindarsharg: ssh "  -nodelist 'in-cn0161'"
 Will use up to    1 processors via Linda.
 -----------------------------
 # hf/sto-3g geom=connectivity
 -----------------------------
 1/38=1,57=2/1;
 2/12=2,17=6,18=5,40=1/2;
 3/6=3,11=9,16=1,25=1,30=1/1,2,3;
 4//1;
 5/5=2,38=5/2;
 6/7=2,8=2,9=2,10=2,28=1/1;
 99/5=1,9=1/99;
 -------------------
 Title Card Required
 -------------------
 Symbolic Z-matrix:
 Charge =  0 Multiplicity = 1
 C                    -6.85444  -0.13488  -0.16841 
 H                    -7.04021  -0.81833   0.67765 
 H                    -6.88444  -0.74368  -1.08813 
 H                    -7.69705   0.57265  -0.21285 
 C                    -5.52036   0.56989  -0.02104 
 H                    -5.36871   1.27332  -0.86199 
 H                    -5.52345   1.19984   0.8891 
 C                    -4.34402  -0.3886    0.0425 
 H                    -4.3351   -1.02083  -0.8681 
 H                    -4.48926  -1.09459   0.8849 
 C                    -3.00139   0.30277   0.18946 
 H                    -3.00709   0.93031   1.10287 
 H                    -2.85037   1.00933  -0.6497 
 C                    -1.82468  -0.66362   0.24693 
 H                    -1.80066  -1.27769  -0.67321 
 H                    -1.99464  -1.37372   1.0812 
 C                    -0.51189   0.02301   0.42809 
 H                    -0.40546   0.63496   1.33864 
 C                     0.51189  -0.02301  -0.42809 
 H                     0.32932  -0.41639  -1.44142 
 C                     1.91491   0.38542  -0.12408 
 H                     1.96895   0.80071   0.90008 
 H                     2.22109   1.2079   -0.80151 
 C                     2.91413  -0.75576  -0.26947 
 H                     2.83961  -1.18235  -1.28958 
 H                     2.62707  -1.57896   0.41331 
 C                     4.34823  -0.34099   0.00174 
 H                     4.62956   0.48327  -0.68429 
 H                     4.4204    0.09122   1.02006 
 C                     5.34822  -1.47567  -0.13612 
 H                     5.06102  -2.2961    0.54903 
 H                     5.27066  -1.90479  -1.15349 
 C                     6.7761   -1.0466    0.13822 
 H                     7.48896  -1.87942   0.03424 
 H                     7.09377  -0.25016  -0.5562 
 H                     6.88255  -0.64532   1.1605 
 
                          Input orientation:                          
 ---------------------------------------------------------------------
 Center     Atomic      Atomic             Coordinates (Angstroms)
 Number     Number       Type             X           Y           Z
 ---------------------------------------------------------------------
      1          6           0       -6.854443   -0.134877   -0.168414
      2          1           0       -7.040212   -0.818328    0.677653
      3          1           0       -6.884443   -0.743683   -1.088126
      4          1           0       -7.697052    0.572652   -0.212848
      5          6           0       -5.520363    0.569890   -0.021040
      6          1           0       -5.368713    1.273324   -0.861988
      7          1           0       -5.523451    1.199843    0.889097
      8          6           0       -4.344023   -0.388597    0.042497
      9          1           0       -4.335099   -1.020835   -0.868101
     10          1           0       -4.489260   -1.094591    0.884904
     11          6           0       -3.001393    0.302765    0.189464
     12          1           0       -3.007087    0.930311    1.102873
     13          1           0       -2.850369    1.009328   -0.649702
     14          6           0       -1.824677   -0.663624    0.246928
     15          1           0       -1.800656   -1.277687   -0.673205
     16          1           0       -1.994641   -1.373719    1.081199
     17          6           0       -0.511885    0.023005    0.428088
     18          1           0       -0.405457    0.634962    1.338635
     19          6           0        0.511885   -0.023005   -0.428088
     20          1           0        0.329325   -0.416391   -1.441416
     21          6           0        1.914908    0.385419   -0.124084
     22          1           0        1.968953    0.800708    0.900078
     23          1           0        2.221091    1.207900   -0.801511
     24          6           0        2.914126   -0.755763   -0.269469
     25          1           0        2.839613   -1.182348   -1.289585
     26          1           0        2.627074   -1.578960    0.413309
     27          6           0        4.348227   -0.340987    0.001737
     28          1           0        4.629562    0.483267   -0.684286
     29          1           0        4.420401    0.091225    1.020057
     30          6           0        5.348223   -1.475673   -0.136121
     31          1           0        5.061024   -2.296095    0.549033
     32          1           0        5.270659   -1.904795   -1.153489
     33          6           0        6.776095   -1.046602    0.138221
     34          1           0        7.488956   -1.879416    0.034242
     35          1           0        7.093766   -0.250164   -0.556196
     36          1           0        6.882546   -0.645320    1.160501
 ---------------------------------------------------------------------
                    Distance matrix (angstroms):
                    1          2          3          4          5
     1  C    0.000000
     2  H    1.103379   0.000000
     3  H    1.103365   1.774207   0.000000
     4  H    1.101164   1.777430   1.777409   0.000000
     5  C    1.515977   2.173767   2.173674   2.185125   0.000000
     6  H    2.161358   3.088594   2.533159   2.516642   1.106802
     7  H    2.161330   2.533434   3.088528   2.516385   1.106887
     8  C    2.532008   2.803128   2.803235   3.497428   1.518720
     9  H    2.760720   3.122179   2.573787   3.777735   2.157028
    10  H    2.761272   2.574224   3.122961   3.778186   2.157407
    11  C    3.894304   4.219862   4.219641   4.720583   2.541826
    12  H    4.189623   4.416407   4.757796   4.884139   2.776624
    13  H    4.192070   4.759935   4.420296   4.885884   2.777983
    14  C    5.074508   5.235577   5.233547   6.018684   3.905312
    15  H    5.205919   5.430357   5.128568   6.197029   4.204174
    16  H    5.168553   5.092062   5.386379   6.162825   4.174118
    17  C    6.372502   6.587046   6.595166   7.234607   5.058226
    18  H    6.667328   6.824143   7.054579   7.455088   5.292940
    19  C    7.371752   7.673941   7.460610   8.233334   6.074967
    20  H    7.301116   7.678677   7.229825   8.179872   6.099923
    21  C    8.784884   9.071161   8.923722   9.614193   7.438273
    22  H    8.936963   9.156190   9.204386   9.732537   7.549278
    23  H    9.196150   9.595064   9.316736   9.955884   7.806811
    24  C    9.788803   9.999490   9.832716  10.694157   8.541644
    25  H    9.814731  10.080351   9.736030  10.735954   8.635320
    26  H    9.608483   9.700766   9.665452  10.564520   8.437236
    27  C   11.205857  11.418461  11.292601  12.081785   9.910564
    28  H   11.512194  11.820857  11.586233  12.335950  10.171941
    29  H   11.339564  11.501747  11.530005  12.189524  10.006588
    30  C   12.276149  12.432524  12.291470  13.205329  11.060006
    31  H   12.131115  12.191811  12.156663  13.098805  10.977459
    32  H   12.293132  12.493640  12.210609  13.235712  11.128911
    33  C   13.664437  13.828718  13.718819  14.567677  12.403277
    34  H   14.450522  14.582065  14.461819  15.384685  13.237996
    35  H   13.954075  14.199103  13.997030  14.817666  12.652081
    36  H   13.810555  13.932202  13.949766  14.694700  12.518184
                    6          7          8          9         10
     6  H    0.000000
     7  H    1.759444   0.000000
     8  C    2.151758   2.151958   0.000000
     9  H    2.516259   3.071048   1.108600   0.000000
    10  H    3.071171   2.516743   1.108680   1.761315   0.000000
    11  C    2.766178   2.766769   1.517312   2.156185   2.156383
    12  H    3.091216   2.539771   2.156690   3.074951   2.518844
    13  H    2.541027   3.090237   2.159707   2.524615   3.076923
    14  C    4.188276   4.191160   2.542545   2.770038   2.773580
    15  H    4.390254   4.736892   2.787728   2.554870   3.112847
    16  H    4.708203   4.371799   2.751175   3.066275   2.517850
    17  C    5.178453   5.168488   3.873419   4.169733   4.156587
    18  H    5.466640   5.168659   4.270825   4.801399   4.458102
    19  C    6.037398   6.297270   4.892336   4.968152   5.280501
    20  H    5.971474   6.503728   4.903361   4.738237   5.393559
    21  C    7.374551   7.551093   6.308808   6.449317   6.649951
    22  H    7.561057   7.503036   6.481015   6.795995   6.730595
    23  H    7.590327   7.926926   6.808955   6.924978   7.292069
    24  C    8.548316   8.738385   7.274123   7.278729   7.500501
    25  H    8.578449   8.964504   7.349089   7.188896   7.645161
    26  H    8.584551   8.624337   7.081713   7.101083   7.148372
    27  C    9.887919  10.030533   8.692476   8.753225   8.913421
    28  H   10.031016  10.299160   9.045087   9.091824   9.386422
    29  H   10.038237  10.006317   8.831817   9.025553   8.989243
    30  C   11.087677  11.242898   9.754653   9.721594   9.897665
    31  H   11.113557  11.152056   9.609893   9.587580   9.631425
    32  H   11.107729  11.415943   9.806699   9.650566  10.003374
    33  C   12.404791  12.525540  11.139980  11.156701  11.290175
    34  H   13.268861  13.399080  11.926526  11.889477  12.034004
    35  H   12.558978  12.782236  11.454284  11.459066  11.702834
    36  H   12.564434  12.545399  11.285020  11.405779  11.384014
                   11         12         13         14         15
    11  C    0.000000
    12  H    1.108225   0.000000
    13  H    1.107357   1.761341   0.000000
    14  C    1.523768   2.161334   2.157489   0.000000
    15  H    2.164208   3.079803   2.516523   1.106479   0.000000
    16  H    2.149265   2.516758   3.067116   1.108662   1.767706
    17  C    2.516517   2.739447   2.757349   1.492549   2.136721
    18  H    2.858292   2.628934   3.173520   2.211862   3.106816
    19  C    3.581985   3.954215   3.524142   2.515067   2.642377
    20  H    3.777649   4.406660   3.573505   2.747972   2.422560
    21  C    4.926983   5.101800   4.834604   3.901620   4.107660
    22  H    5.045519   4.981857   5.066676   4.118556   4.583110
    23  H    5.392183   5.571138   5.077616   4.579308   4.729593
    24  C    6.026978   6.307689   6.040656   4.767747   4.760733
    25  H    6.205683   6.661163   6.130970   4.938173   4.681999
    26  H    5.938909   6.206103   6.150741   4.547924   4.569034
    27  C    7.380147   7.545153   7.353061   6.186190   6.256334
    28  H    7.682935   7.855711   7.498487   6.621157   6.666992
    29  H    7.471122   7.475193   7.516323   6.337865   6.591101
    30  C    8.543122   8.782657   8.582302   7.228875   7.171759
    31  H    8.478557   8.706943   8.657536   7.083016   7.043698
    32  H    8.666238   9.036043   8.642743   7.337947   7.115296
    33  C    9.870293  10.027432   9.875043   8.609981   8.618148
    34  H   10.716036  10.918034  10.757057   9.395060   9.335923
    35  H   10.137750  10.304041  10.024016   8.964072   8.954342
    36  H    9.976674  10.014528  10.037147   8.755037   8.897211
                   16         17         18         19         20
    16  H    0.000000
    17  C    2.139149   0.000000
    18  H    2.574214   1.102231   0.000000
    19  C    3.222584   1.335387   2.096604   0.000000
    20  H    3.561022   2.096604   3.061687   1.102231   0.000000
    21  C    4.453296   2.515067   2.754254   1.492549   2.211862
    22  H    4.524491   2.642377   2.420254   2.136721   3.106816
    23  H    5.289778   3.222584   3.436166   2.139149   2.574214
    24  C    5.128564   3.581985   3.942049   2.516517   2.858292
    25  H    5.387695   3.954215   4.554189   2.739447   2.628934
    26  H    4.674233   3.524142   3.867030   2.757349   3.173520
    27  C    6.516421   4.892336   5.033615   3.873419   4.270825
    28  H    7.102493   5.280501   5.428318   4.156587   4.458102
    29  H    6.580469   4.968152   4.866832   4.169733   4.801399
    30  C    7.443783   6.074967   6.303532   5.058226   5.292940
    31  H    7.135572   6.037398   6.252758   5.178453   5.466640
    32  H    7.619741   6.297270   6.699204   5.168488   5.168659
    33  C    8.827345   7.371752   7.472840   6.372502   6.667328
    34  H    9.554605   8.233334   8.387210   7.234607   7.455088
    35  H    9.302827   7.673941   7.785383   6.587046   6.824142
    36  H    8.907373   7.460610   7.401746   6.595166   7.054579
                   21         22         23         24         25
    21  C    0.000000
    22  H    1.106479   0.000000
    23  H    1.108662   1.767706   0.000000
    24  C    1.523768   2.164208   2.149265   0.000000
    25  H    2.161334   3.079803   2.516758   1.108225   0.000000
    26  H    2.157489   2.516523   3.067116   1.107357   1.761341
    27  C    2.542545   2.787728   2.751175   1.517312   2.156690
    28  H    2.773580   3.112847   2.517850   2.156383   2.518844
    29  H    2.770038   2.554870   3.066275   2.156185   3.074951
    30  C    3.905312   4.204174   4.174118   2.541826   2.776624
    31  H    4.188276   4.390254   4.708203   2.766178   3.091216
    32  H    4.191160   4.736892   4.371799   2.766769   2.539771
    33  C    5.074508   5.205919   5.168553   3.894304   4.189623
    34  H    6.018684   6.197029   6.162825   4.720583   4.884139
    35  H    5.235577   5.430357   5.092062   4.219862   4.416406
    36  H    5.233547   5.128568   5.386379   4.219641   4.757796
                   26         27         28         29         30
    26  H    0.000000
    27  C    2.159707   0.000000
    28  H    3.076923   1.108680   0.000000
    29  H    2.524615   1.108600   1.761315   0.000000
    30  C    2.777983   1.518720   2.157407   2.157028   0.000000
    31  H    2.541027   2.151758   3.071171   2.516259   1.106802
    32  H    3.090237   2.151958   2.516743   3.071048   1.106887
    33  C    4.192070   2.532008   2.761272   2.760720   1.515977
    34  H    4.885884   3.497428   3.778186   3.777735   2.185125
    35  H    4.759935   2.803128   2.574224   3.122179   2.173766
    36  H    4.420296   2.803235   3.122961   2.573787   2.173674
                   31         32         33         34         35
    31  H    0.000000
    32  H    1.759444   0.000000
    33  C    2.161358   2.161330   0.000000
    34  H    2.516642   2.516385   1.101164   0.000000
    35  H    3.088593   2.533433   1.103378   1.777429   0.000000
    36  H    2.533159   3.088528   1.103365   1.777409   1.774207
                   36
    36  H    0.000000
 Stoichiometry    C12H24
 Framework group  C1[X(C12H24)]
 Deg. of freedom   102
 Full point group                 C1      NOp   1
 Largest Abelian subgroup         C1      NOp   1
 Largest concise Abelian subgroup C1      NOp   1
                         Standard orientation:                         
 ---------------------------------------------------------------------
 Center     Atomic      Atomic             Coordinates (Angstroms)
 Number     Number       Type             X           Y           Z
 ---------------------------------------------------------------------
      1          6           0        6.823231   -0.415489    0.145862
      2          1           0        6.954447   -1.025317   -0.764268
      3          1           0        6.798649   -1.112377    1.000940
      4          1           0        7.721891    0.211263    0.256102
      5          6           0        5.553356    0.409448    0.074573
      6          1           0        5.457830    1.036743    0.981428
      7          1           0        5.612642    1.123595   -0.769038
      8          6           0        4.301219   -0.436366   -0.077941
      9          1           0        4.235925   -1.152336    0.765929
     10          1           0        4.390146   -1.065520   -0.986472
     11          6           0        3.021702    0.375954   -0.150108
     12          1           0        3.083396    1.087818   -0.997224
     13          1           0        2.927068    1.006475    0.755279
     14          6           0        1.768506   -0.478264   -0.297356
     15          1           0        1.689651   -1.175889    0.557861
     16          1           0        1.881698   -1.114354   -1.198305
     17          6           0        0.518458    0.330239   -0.404148
     18          1           0        0.467108    1.035739   -1.249457
     19          6           0       -0.508872    0.285804    0.447836
     20          1           0       -0.363772   -0.219459    1.416634
     21          6           0       -1.871630    0.838093    0.191775
     22          1           0       -1.886793    1.355398   -0.786214
     23          1           0       -2.110557    1.612482    0.948324
     24          6           0       -2.963357   -0.224293    0.228371
     25          1           0       -2.928728   -0.754110    1.201128
     26          1           0       -2.743533   -0.997263   -0.533491
     27          6           0       -4.356679    0.333661    0.005711
     28          1           0       -4.570730    1.106881    0.770880
     29          1           0       -4.388514    0.868686   -0.964716
     30          6           0       -5.448607   -0.721477    0.035460
     31          1           0       -5.228396   -1.491474   -0.728492
     32          1           0       -5.411140   -1.253795    1.005220
     33          6           0       -6.834515   -0.149560   -0.188939
     34          1           0       -7.614937   -0.926028   -0.164414
     35          1           0       -7.087134    0.598289    0.582001
     36          1           0       -6.903078    0.358051   -1.166204
 ---------------------------------------------------------------------
 Rotational constants (GHZ):      6.0297042      0.1588155      0.1573797
 Standard basis: STO-3G (5D, 7F)
 There are    84 symmetry adapted cartesian basis functions of A   symmetry.
 There are    84 symmetry adapted basis functions of A   symmetry.
    84 basis functions,   252 primitive gaussians,    84 cartesian basis functions
    48 alpha electrons       48 beta electrons
       nuclear repulsion energy       651.3286674942 Hartrees.
 NAtoms=   36 NActive=   36 NUniq=   36 SFac= 1.00D+00 NAtFMM=   60 NAOKFM=F Big=F
 Integral buffers will be    131072 words long.
 Raffenetti 1 integral format.
 Two-electron integral symmetry is turned on.
 One-electron integrals computed using PRISM.
 NBasis=    84 RedAO= T EigKep=  1.87D-01  NBF=    84
 NBsUse=    84 1.00D-06 EigRej= -1.00D+00 NBFU=    84
 ExpMin= 1.69D-01 ExpMax= 7.16D+01 ExpMxC= 7.16D+01 IAcc=1 IRadAn=         1 AccDes= 0.00D+00
 Harris functional with IExCor=  205 and IRadAn=       1 diagonalized for initial guess.
 HarFok:  IExCor=  205 AccDes= 0.00D+00 IRadAn=         1 IDoV= 1 UseB2=F ITyADJ=14
 ICtDFT=  3500011 ScaDFX=  1.000000  1.000000  1.000000  1.000000
 FoFCou: FMM=F IPFlag=           0 FMFlag=      100000 FMFlg1=           0
         NFxFlg=           0 DoJE=T BraDBF=F KetDBF=T FulRan=T
         wScrn=  0.000000 ICntrl=     500 IOpCl=  0 I1Cent=   200000004 NGrid=           0
         NMat0=    1 NMatS0=      1 NMatT0=    0 NMatD0=    1 NMtDS0=    0 NMtDT0=    0
 Petite list used in FoFCou.
 Keep R1 ints in memory in canonical form, NReq=7307671.
 Requested convergence on RMS density matrix=1.00D-08 within 128 cycles.
 Requested convergence on MAX density matrix=1.00D-06.
 Requested convergence on             energy=1.00D-06.
 No special actions if energy rises.
 SCF Done:  E(RHF) =  -462.867919856     A.U. after   10 cycles
            NFock= 10  Conv=0.50D-08     -V/T= 2.0089

 **********************************************************************

            Population analysis using the SCF density.

 **********************************************************************

 Orbital symmetries:
       Occupied  (A) (A) (A) (A) (A) (A) (A) (A) (A) (A) (A) (A)
                 (A) (A) (A) (A) (A) (A) (A) (A) (A) (A) (A) (A)
                 (A) (A) (A) (A) (A) (A) (A) (A) (A) (A) (A) (A)
                 (A) (A) (A) (A) (A) (A) (A) (A) (A) (A) (A) (A)
       Virtual   (A) (A) (A) (A) (A) (A) (A) (A) (A) (A) (A) (A)
                 (A) (A) (A) (A) (A) (A) (A) (A) (A) (A) (A) (A)
                 (A) (A) (A) (A) (A) (A) (A) (A) (A) (A) (A) (A)
 The electronic state is 1-A.
 Alpha  occ. eigenvalues --  -11.04234 -11.04205 -11.04046 -11.03974 -11.03935
 Alpha  occ. eigenvalues --  -11.03765 -11.03737 -11.03649 -11.03373 -11.03328
 Alpha  occ. eigenvalues --  -11.00935 -11.00857  -1.05735  -1.04560  -1.01787
 Alpha  occ. eigenvalues --   -0.98648  -0.94426  -0.89514  -0.84804  -0.79230
 Alpha  occ. eigenvalues --   -0.76284  -0.75055  -0.74773  -0.69660  -0.61850
 Alpha  occ. eigenvalues --   -0.61524  -0.58029  -0.57683  -0.55715  -0.55161
 Alpha  occ. eigenvalues --   -0.53509  -0.53035  -0.52344  -0.51221  -0.48650
 Alpha  occ. eigenvalues --   -0.48064  -0.46977  -0.46382  -0.44727  -0.43636
 Alpha  occ. eigenvalues --   -0.43042  -0.42607  -0.42412  -0.42118  -0.41690
 Alpha  occ. eigenvalues --   -0.41637  -0.39325  -0.27792
 Alpha virt. eigenvalues --    0.31530   0.55322   0.57962   0.57976   0.59202
 Alpha virt. eigenvalues --    0.61439   0.63542   0.65415   0.66304   0.66845
 Alpha virt. eigenvalues --    0.67407   0.67833   0.69144   0.69720   0.70715
 Alpha virt. eigenvalues --    0.71223   0.72709   0.73158   0.73927   0.74393
 Alpha virt. eigenvalues --    0.74557   0.75249   0.76265   0.76416   0.77348
 Alpha virt. eigenvalues --    0.77986   0.78126   0.78716   0.80263   0.80575
 Alpha virt. eigenvalues --    0.80892   0.81062   0.81953   0.82481   0.95421
 Alpha virt. eigenvalues --    1.06479
          Condensed to atoms (all electrons):
               1          2          3          4          5          6
     1  C    4.726296   0.380223   0.380230   0.381588   0.368734  -0.022189
     2  H    0.380223   0.633886  -0.021870  -0.021551  -0.021002   0.001880
     3  H    0.380230  -0.021870   0.633815  -0.021549  -0.021003  -0.002226
     4  H    0.381588  -0.021551  -0.021549   0.629284  -0.019427  -0.002125
     5  C    0.368734  -0.021002  -0.021003  -0.019427   4.726053   0.379358
     6  H   -0.022189   0.001880  -0.002226  -0.002125   0.379358   0.646264
     7  H   -0.022203  -0.002222   0.001880  -0.002128   0.379308  -0.023870
     8  C   -0.022875  -0.002136  -0.002134   0.001241   0.367942  -0.023025
     9  H   -0.002216  -0.000006   0.000393   0.000009  -0.022741  -0.002346
    10  H   -0.002209   0.000394  -0.000006   0.000009  -0.022730   0.001945
    11  C    0.000718   0.000008   0.000008  -0.000015  -0.021684  -0.002207
    12  H    0.000007   0.000002  -0.000001  -0.000000  -0.002159   0.000003
    13  H    0.000007  -0.000001   0.000002  -0.000000  -0.002159   0.000386
    14  C   -0.000005  -0.000000  -0.000000   0.000000   0.000697   0.000007
    15  H   -0.000000   0.000000  -0.000000   0.000000   0.000006   0.000002
    16  H   -0.000000  -0.000000   0.000000   0.000000   0.000008  -0.000001
    17  C    0.000000   0.000000   0.000000  -0.000000  -0.000005  -0.000000
    18  H   -0.000000  -0.000000  -0.000000   0.000000   0.000000   0.000000
    19  C   -0.000000  -0.000000  -0.000000   0.000000   0.000000  -0.000000
    20  H   -0.000000  -0.000000  -0.000000   0.000000   0.000000   0.000000
    21  C    0.000000   0.000000   0.000000  -0.000000  -0.000000  -0.000000
    22  H    0.000000   0.000000   0.000000  -0.000000  -0.000000  -0.000000
    23  H   -0.000000  -0.000000  -0.000000   0.000000   0.000000   0.000000
    24  C    0.000000   0.000000   0.000000  -0.000000  -0.000000  -0.000000
    25  H   -0.000000  -0.000000  -0.000000   0.000000   0.000000  -0.000000
    26  H   -0.000000  -0.000000  -0.000000   0.000000   0.000000   0.000000
    27  C    0.000000   0.000000   0.000000   0.000000   0.000000   0.000000
    28  H    0.000000   0.000000   0.000000   0.000000  -0.000000  -0.000000
    29  H    0.000000   0.000000  -0.000000   0.000000   0.000000   0.000000
    30  C    0.000000   0.000000   0.000000   0.000000   0.000000  -0.000000
    31  H    0.000000   0.000000   0.000000   0.000000  -0.000000  -0.000000
    32  H    0.000000   0.000000   0.000000   0.000000   0.000000  -0.000000
    33  C    0.000000   0.000000   0.000000   0.000000   0.000000   0.000000
    34  H    0.000000   0.000000   0.000000   0.000000   0.000000   0.000000
    35  H    0.000000   0.000000   0.000000   0.000000   0.000000   0.000000
    36  H    0.000000   0.000000   0.000000   0.000000   0.000000   0.000000
               7          8          9         10         11         12
     1  C   -0.022203  -0.022875  -0.002216  -0.002209   0.000718   0.000007
     2  H   -0.002222  -0.002136  -0.000006   0.000394   0.000008   0.000002
     3  H    0.001880  -0.002134   0.000393  -0.000006   0.000008  -0.000001
     4  H   -0.002128   0.001241   0.000009   0.000009  -0.000015  -0.000000
     5  C    0.379308   0.367942  -0.022741  -0.022730  -0.021684  -0.002159
     6  H   -0.023870  -0.023025  -0.002346   0.001945  -0.002207   0.000003
     7  H    0.646601  -0.023034   0.001946  -0.002345  -0.002199   0.000392
     8  C   -0.023034   4.739699   0.378405   0.378393   0.368595  -0.022758
     9  H    0.001946   0.378405   0.650085  -0.023898  -0.022779   0.001934
    10  H   -0.002345   0.378393  -0.023898   0.650423  -0.022771  -0.002341
    11  C   -0.002199   0.368595  -0.022779  -0.022771   4.741410   0.378661
    12  H    0.000392  -0.022758   0.001934  -0.002341   0.378661   0.648886
    13  H    0.000004  -0.022567  -0.002280   0.001922   0.379003  -0.023865
    14  C    0.000007  -0.021818  -0.002210  -0.002221   0.362124  -0.022392
    15  H   -0.000001  -0.002029   0.000374  -0.000001  -0.021867   0.001883
    16  H    0.000002  -0.002372   0.000001   0.000441  -0.023408  -0.002262
    17  C   -0.000000   0.000753   0.000008   0.000007  -0.023754  -0.002379
    18  H   -0.000000  -0.000004  -0.000001   0.000001  -0.001154   0.000373
    19  C    0.000000  -0.000004   0.000000  -0.000000   0.000296   0.000009
    20  H   -0.000000  -0.000002  -0.000000  -0.000000   0.000057  -0.000000
    21  C   -0.000000   0.000000   0.000000   0.000000  -0.000005  -0.000000
    22  H   -0.000000   0.000000  -0.000000   0.000000  -0.000000  -0.000000
    23  H    0.000000  -0.000000  -0.000000  -0.000000   0.000001   0.000000
    24  C   -0.000000   0.000000   0.000000  -0.000000  -0.000000   0.000000
    25  H    0.000000  -0.000000   0.000000  -0.000000   0.000000  -0.000000
    26  H    0.000000  -0.000000  -0.000000  -0.000000   0.000000   0.000000
    27  C   -0.000000  -0.000000  -0.000000   0.000000   0.000000  -0.000000
    28  H   -0.000000   0.000000  -0.000000   0.000000  -0.000000  -0.000000
    29  H    0.000000  -0.000000  -0.000000   0.000000   0.000000  -0.000000
    30  C    0.000000  -0.000000   0.000000  -0.000000  -0.000000   0.000000
    31  H   -0.000000   0.000000   0.000000   0.000000  -0.000000  -0.000000
    32  H    0.000000  -0.000000   0.000000  -0.000000  -0.000000   0.000000
    33  C    0.000000   0.000000  -0.000000   0.000000   0.000000  -0.000000
    34  H    0.000000   0.000000   0.000000   0.000000  -0.000000   0.000000
    35  H    0.000000   0.000000   0.000000   0.000000   0.000000  -0.000000
    36  H    0.000000   0.000000  -0.000000   0.000000   0.000000  -0.000000
              13         14         15         16         17         18
     1  C    0.000007  -0.000005  -0.000000  -0.000000   0.000000  -0.000000
     2  H   -0.000001  -0.000000   0.000000  -0.000000   0.000000  -0.000000
     3  H    0.000002  -0.000000  -0.000000   0.000000   0.000000  -0.000000
     4  H   -0.000000   0.000000   0.000000   0.000000  -0.000000   0.000000
     5  C   -0.002159   0.000697   0.000006   0.000008  -0.000005   0.000000
     6  H    0.000386   0.000007   0.000002  -0.000001  -0.000000   0.000000
     7  H    0.000004   0.000007  -0.000001   0.000002  -0.000000  -0.000000
     8  C   -0.022567  -0.021818  -0.002029  -0.002372   0.000753  -0.000004
     9  H   -0.002280  -0.002210   0.000374   0.000001   0.000008  -0.000001
    10  H    0.001922  -0.002221  -0.000001   0.000441   0.000007   0.000001
    11  C    0.379003   0.362124  -0.021867  -0.023408  -0.023754  -0.001154
    12  H   -0.023865  -0.022392   0.001883  -0.002262  -0.002379   0.000373
    13  H    0.646950  -0.022716  -0.002403   0.001945  -0.001994   0.000003
    14  C   -0.022716   4.720880   0.379349   0.377592   0.384776  -0.025348
    15  H   -0.002403   0.379349   0.639905  -0.023035  -0.022616   0.001695
    16  H    0.001945   0.377592  -0.023035   0.641197  -0.022991  -0.001923
    17  C   -0.001994   0.384776  -0.022616  -0.022991   4.822725   0.385399
    18  H    0.000003  -0.025348   0.001695  -0.001923   0.385399   0.626150
    19  C    0.000093  -0.025758  -0.004509   0.000336   0.598092  -0.029676
    20  H    0.000029  -0.004231   0.000621   0.000035  -0.029580   0.002100
    21  C   -0.000002   0.000757   0.000020  -0.000018  -0.025915  -0.004156
    22  H    0.000000   0.000019   0.000000  -0.000000  -0.004521   0.000641
    23  H   -0.000000  -0.000016  -0.000001  -0.000001   0.000699   0.000076
    24  C    0.000000  -0.000007  -0.000000   0.000002   0.000033   0.000024
    25  H    0.000000  -0.000000  -0.000000   0.000000   0.000011  -0.000000
    26  H    0.000000  -0.000004   0.000000  -0.000000   0.000114   0.000013
    27  C   -0.000000   0.000000   0.000000  -0.000000  -0.000002  -0.000001
    28  H   -0.000000   0.000000   0.000000  -0.000000  -0.000000   0.000000
    29  H   -0.000000   0.000000  -0.000000  -0.000000   0.000000  -0.000000
    30  C    0.000000  -0.000000  -0.000000   0.000000   0.000000   0.000000
    31  H    0.000000   0.000000  -0.000000   0.000000  -0.000000  -0.000000
    32  H    0.000000  -0.000000  -0.000000   0.000000   0.000000  -0.000000
    33  C   -0.000000   0.000000   0.000000  -0.000000   0.000000  -0.000000
    34  H    0.000000  -0.000000  -0.000000   0.000000  -0.000000   0.000000
    35  H   -0.000000   0.000000   0.000000  -0.000000  -0.000000  -0.000000
    36  H   -0.000000   0.000000   0.000000  -0.000000  -0.000000  -0.000000
              19         20         21         22         23         24
     1  C   -0.000000  -0.000000   0.000000   0.000000  -0.000000   0.000000
     2  H   -0.000000  -0.000000   0.000000   0.000000  -0.000000   0.000000
     3  H   -0.000000  -0.000000   0.000000   0.000000  -0.000000   0.000000
     4  H    0.000000   0.000000  -0.000000  -0.000000   0.000000  -0.000000
     5  C    0.000000   0.000000  -0.000000  -0.000000   0.000000  -0.000000
     6  H   -0.000000   0.000000  -0.000000  -0.000000   0.000000  -0.000000
     7  H    0.000000  -0.000000  -0.000000  -0.000000   0.000000  -0.000000
     8  C   -0.000004  -0.000002   0.000000   0.000000  -0.000000   0.000000
     9  H    0.000000  -0.000000   0.000000  -0.000000  -0.000000   0.000000
    10  H   -0.000000  -0.000000   0.000000   0.000000  -0.000000  -0.000000
    11  C    0.000296   0.000057  -0.000005  -0.000000   0.000001  -0.000000
    12  H    0.000009  -0.000000  -0.000000  -0.000000   0.000000   0.000000
    13  H    0.000093   0.000029  -0.000002   0.000000  -0.000000   0.000000
    14  C   -0.025758  -0.004231   0.000757   0.000019  -0.000016  -0.000007
    15  H   -0.004509   0.000621   0.000020   0.000000  -0.000001  -0.000000
    16  H    0.000336   0.000035  -0.000018  -0.000000  -0.000001   0.000002
    17  C    0.598092  -0.029580  -0.025915  -0.004521   0.000699   0.000033
    18  H   -0.029676   0.002100  -0.004156   0.000641   0.000076   0.000024
    19  C    4.822584   0.385230   0.384867  -0.022660  -0.023902  -0.022974
    20  H    0.385230   0.626439  -0.025325   0.001695  -0.001184  -0.001763
    21  C    0.384867  -0.025325   4.721271   0.379348   0.375079   0.364378
    22  H   -0.022660   0.001695   0.379348   0.639982  -0.022753  -0.022084
    23  H   -0.023902  -0.001184   0.375079  -0.022753   0.646957  -0.023446
    24  C   -0.022974  -0.001763   0.364378  -0.022084  -0.023446   4.738873
    25  H   -0.002342   0.000365  -0.022431   0.001883  -0.002246   0.378586
    26  H   -0.001745   0.000018  -0.022869  -0.002401   0.001969   0.378658
    27  C    0.000728   0.000003  -0.021667  -0.002015  -0.002460   0.368921
    28  H    0.000007   0.000001  -0.002210  -0.000001   0.000436  -0.022785
    29  H    0.000008  -0.000001  -0.002195   0.000377  -0.000002  -0.022783
    30  C   -0.000005  -0.000000   0.000693   0.000006   0.000010  -0.021651
    31  H   -0.000000   0.000000   0.000006   0.000002  -0.000001  -0.002204
    32  H   -0.000000  -0.000000   0.000007  -0.000001   0.000002  -0.002196
    33  C    0.000000   0.000000  -0.000005  -0.000000  -0.000000   0.000717
    34  H   -0.000000  -0.000000   0.000000   0.000000   0.000000  -0.000015
    35  H    0.000000  -0.000000  -0.000000   0.000000  -0.000000   0.000008
    36  H    0.000000  -0.000000  -0.000000  -0.000000   0.000000   0.000008
              25         26         27         28         29         30
     1  C   -0.000000  -0.000000   0.000000   0.000000   0.000000   0.000000
     2  H   -0.000000  -0.000000   0.000000   0.000000   0.000000   0.000000
     3  H   -0.000000  -0.000000   0.000000   0.000000  -0.000000   0.000000
     4  H    0.000000   0.000000   0.000000   0.000000   0.000000   0.000000
     5  C    0.000000   0.000000   0.000000  -0.000000   0.000000   0.000000
     6  H   -0.000000   0.000000   0.000000  -0.000000   0.000000  -0.000000
     7  H    0.000000   0.000000  -0.000000  -0.000000   0.000000   0.000000
     8  C   -0.000000  -0.000000  -0.000000   0.000000  -0.000000  -0.000000
     9  H    0.000000  -0.000000  -0.000000  -0.000000  -0.000000   0.000000
    10  H   -0.000000  -0.000000   0.000000   0.000000   0.000000  -0.000000
    11  C    0.000000   0.000000   0.000000  -0.000000   0.000000  -0.000000
    12  H   -0.000000   0.000000  -0.000000  -0.000000  -0.000000   0.000000
    13  H    0.000000   0.000000  -0.000000  -0.000000  -0.000000   0.000000
    14  C   -0.000000  -0.000004   0.000000   0.000000   0.000000  -0.000000
    15  H   -0.000000   0.000000   0.000000   0.000000  -0.000000  -0.000000
    16  H    0.000000  -0.000000  -0.000000  -0.000000  -0.000000   0.000000
    17  C    0.000011   0.000114  -0.000002  -0.000000   0.000000   0.000000
    18  H   -0.000000   0.000013  -0.000001   0.000000  -0.000000   0.000000
    19  C   -0.002342  -0.001745   0.000728   0.000007   0.000008  -0.000005
    20  H    0.000365   0.000018   0.000003   0.000001  -0.000001  -0.000000
    21  C   -0.022431  -0.022869  -0.021667  -0.002210  -0.002195   0.000693
    22  H    0.001883  -0.002401  -0.002015  -0.000001   0.000377   0.000006
    23  H   -0.002246   0.001969  -0.002460   0.000436  -0.000002   0.000010
    24  C    0.378586   0.378658   0.368921  -0.022785  -0.022783  -0.021651
    25  H    0.647853  -0.023808  -0.022712  -0.002342   0.001933  -0.002161
    26  H   -0.023808   0.646176  -0.022511   0.001921  -0.002277  -0.002164
    27  C   -0.022712  -0.022511   4.738763   0.378419   0.378389   0.368008
    28  H   -0.002342   0.001921   0.378419   0.649604  -0.023862  -0.022707
    29  H    0.001933  -0.002277   0.378389  -0.023862   0.649417  -0.022709
    30  C   -0.002161  -0.002164   0.368008  -0.022707  -0.022709   4.725815
    31  H    0.000003   0.000385  -0.023034   0.001944  -0.002346   0.379357
    32  H    0.000392   0.000003  -0.023045  -0.002345   0.001946   0.379308
    33  C    0.000007   0.000007  -0.022859  -0.002209  -0.002218   0.368765
    34  H   -0.000000  -0.000000   0.001241   0.000009   0.000010  -0.019422
    35  H    0.000002  -0.000001  -0.002134   0.000394  -0.000006  -0.021005
    36  H   -0.000001   0.000002  -0.002133  -0.000006   0.000393  -0.021006
              31         32         33         34         35         36
     1  C    0.000000   0.000000   0.000000   0.000000   0.000000   0.000000
     2  H    0.000000   0.000000   0.000000   0.000000   0.000000   0.000000
     3  H    0.000000   0.000000   0.000000   0.000000   0.000000   0.000000
     4  H    0.000000   0.000000   0.000000   0.000000   0.000000   0.000000
     5  C   -0.000000   0.000000   0.000000   0.000000   0.000000   0.000000
     6  H   -0.000000  -0.000000   0.000000   0.000000   0.000000   0.000000
     7  H   -0.000000   0.000000   0.000000   0.000000   0.000000   0.000000
     8  C    0.000000  -0.000000   0.000000   0.000000   0.000000   0.000000
     9  H    0.000000   0.000000  -0.000000   0.000000   0.000000  -0.000000
    10  H    0.000000  -0.000000   0.000000   0.000000   0.000000   0.000000
    11  C   -0.000000  -0.000000   0.000000  -0.000000   0.000000   0.000000
    12  H   -0.000000   0.000000  -0.000000   0.000000  -0.000000  -0.000000
    13  H    0.000000   0.000000  -0.000000   0.000000  -0.000000  -0.000000
    14  C    0.000000  -0.000000   0.000000  -0.000000   0.000000   0.000000
    15  H   -0.000000  -0.000000   0.000000  -0.000000   0.000000   0.000000
    16  H    0.000000   0.000000  -0.000000   0.000000  -0.000000  -0.000000
    17  C   -0.000000   0.000000   0.000000  -0.000000  -0.000000  -0.000000
    18  H   -0.000000  -0.000000  -0.000000   0.000000  -0.000000  -0.000000
    19  C   -0.000000  -0.000000   0.000000  -0.000000   0.000000   0.000000
    20  H    0.000000  -0.000000   0.000000  -0.000000  -0.000000  -0.000000
    21  C    0.000006   0.000007  -0.000005   0.000000  -0.000000  -0.000000
    22  H    0.000002  -0.000001  -0.000000   0.000000   0.000000  -0.000000
    23  H   -0.000001   0.000002  -0.000000   0.000000  -0.000000   0.000000
    24  C   -0.002204  -0.002196   0.000717  -0.000015   0.000008   0.000008
    25  H    0.000003   0.000392   0.000007  -0.000000   0.000002  -0.000001
    26  H    0.000385   0.000003   0.000007  -0.000000  -0.000001   0.000002
    27  C   -0.023034  -0.023045  -0.022859   0.001241  -0.002134  -0.002133
    28  H    0.001944  -0.002345  -0.002209   0.000009   0.000394  -0.000006
    29  H   -0.002346   0.001946  -0.002218   0.000010  -0.000006   0.000393
    30  C    0.379357   0.379308   0.368765  -0.019422  -0.021005  -0.021006
    31  H    0.646034  -0.023863  -0.022174  -0.002125   0.001879  -0.002226
    32  H   -0.023863   0.646391  -0.022189  -0.002128  -0.002222   0.001880
    33  C   -0.022174  -0.022189   4.726178   0.381609   0.380227   0.380234
    34  H   -0.002125  -0.002128   0.381609   0.629055  -0.021541  -0.021539
    35  H    0.001879  -0.002222   0.380227  -0.021541   0.633722  -0.021863
    36  H   -0.002226   0.001880   0.380234  -0.021539  -0.021863   0.633650
 Mulliken charges:
               1
     1  C   -0.166107
     2  H    0.052395
     3  H    0.052461
     4  H    0.054663
     5  C   -0.089198
     6  H    0.048144
     7  H    0.047863
     8  C   -0.090272
     9  H    0.045319
    10  H    0.044987
    11  C   -0.089036
    12  H    0.046006
    13  H    0.047643
    14  C   -0.099482
    15  H    0.052608
    16  H    0.054452
    17  C   -0.058862
    18  H    0.045786
    19  C   -0.058675
    20  H    0.045492
    21  C   -0.099629
    22  H    0.052483
    23  H    0.050780
    24  C   -0.088300
    25  H    0.047009
    26  H    0.048512
    27  C   -0.089900
    28  H    0.045731
    29  H    0.045924
    30  C   -0.089130
    31  H    0.048362
    32  H    0.048062
    33  C   -0.166089
    34  H    0.054848
    35  H    0.052542
    36  H    0.052607
 Sum of Mulliken charges =  -0.00000
 Mulliken charges with hydrogens summed into heavy atoms:
               1
     1  C   -0.006588
     5  C    0.006809
     8  C    0.000034
    11  C    0.004613
    14  C    0.007578
    17  C   -0.013076
    19  C   -0.013183
    21  C    0.003635
    24  C    0.007221
    27  C    0.001755
    30  C    0.007295
    33  C   -0.006092
 Electronic spatial extent (au):  <R**2>=           7014.5436
 Charge=              0.0000 electrons
 Dipole moment (field-independent basis, Debye):
    X=             -0.0465    Y=             -0.0369    Z=             -0.0102  Tot=              0.0602
 Quadrupole moment (field-independent basis, Debye-Ang):
   XX=            -76.3542   YY=            -75.9937   ZZ=            -74.5157
   XY=             -0.1662   XZ=             -0.5128   YZ=             -0.3826
 Traceless Quadrupole moment (field-independent basis, Debye-Ang):
   XX=             -0.7330   YY=             -0.3725   ZZ=              1.1055
   XY=             -0.1662   XZ=             -0.5128   YZ=             -0.3826
 Octapole moment (field-independent basis, Debye-Ang**2):
  XXX=             -1.3500  YYY=             -0.2607  ZZZ=              0.0274  XYY=             -0.4513
  XXY=              1.1988  XXZ=              0.2455  XZZ=              0.0691  YZZ=              0.0507
  YYZ=             -0.3602  XYZ=             -0.3442
 Hexadecapole moment (field-independent basis, Debye-Ang**3):
 XXXX=          -8986.2406 YYYY=           -257.0734 ZZZZ=           -165.6423 XXXY=             30.1346
 XXXZ=            -12.4517 YYYX=              0.1908 YYYZ=              0.2546 ZZZX=             -0.6401
 ZZZY=             -1.9031 XXYY=          -1512.0001 XXZZ=          -1485.2057 YYZZ=            -64.3540
 XXYZ=              3.3892 YYXZ=             -1.2799 ZZXY=             -4.8340
 N-N= 6.513286674942D+02 E-N=-2.378084048027D+03  KE= 4.587637833203D+02
 1\1\GINC-CN0161\SP\RHF\STO-3G\C12H24\GRAHA682\04-Dec-2017\0\\# hf/sto-
 3g geom=connectivity\\Title Card Required\\0,1\C,0,-6.854443,-0.134877
 ,-0.168414\H,0,-7.040212,-0.818328,0.677653\H,0,-6.884443,-0.743683,-1
 .088126\H,0,-7.697052,0.572652,-0.212848\C,0,-5.520363,0.56989,-0.0210
 4\H,0,-5.368713,1.273324,-0.861988\H,0,-5.523451,1.199843,0.889097\C,0
 ,-4.344023,-0.388597,0.042497\H,0,-4.335099,-1.020835,-0.868101\H,0,-4
 .48926,-1.094591,0.884904\C,0,-3.001393,0.302765,0.189464\H,0,-3.00708
 7,0.930311,1.102873\H,0,-2.850369,1.009328,-0.649702\C,0,-1.824677,-0.
 663624,0.246928\H,0,-1.800656,-1.277687,-0.673205\H,0,-1.994641,-1.373
 719,1.081199\C,0,-0.511885,0.023005,0.428088\H,0,-0.405457,0.634962,1.
 338635\C,0,0.511885,-0.023005,-0.428088\H,0,0.32932451,-0.4163905,-1.4
 41416\C,0,1.91490779,0.3854188,-0.12408434\H,0,1.96895325,0.80070793,0
 .90007831\H,0,2.22109095,1.20790012,-0.80151119\C,0,2.91412622,-0.7557
 6307,-0.26946936\H,0,2.83961338,-1.18234777,-1.28958491\H,0,2.62707429
 ,-1.57896014,0.41330942\C,0,4.3482266,-0.3409866,0.0017365\H,0,4.62956
 21,0.48326699,-0.68428626\H,0,4.42040133,0.09122496,1.02005729\C,0,5.3
 482226,-1.47567312,-0.13612056\H,0,5.06102414,-2.29609549,0.54903259\H
 ,0,5.27065913,-1.90479489,-1.15348877\C,0,6.776095,-1.04660184,0.13822
 104\H,0,7.48895646,-1.8794155,0.03424246\H,0,7.09376641,-0.2501639,-0.
 55619589\H,0,6.88254581,-0.64532047,1.16050103\\Version=ES64L-G09RevE.
 01\State=1-A\HF=-462.8679199\RMSD=5.040e-09\Dipole=0.0169908,-0.016335
 1,0.0024981\Quadrupole=-0.5193335,-0.3505228,0.8698563,0.1777817,-0.34
 61897,0.2001542\PG=C01 [X(C12H24)]\\@


 HAPPINESS IS NOT HAVING WHAT YOU WANT --
 HAPPINESS IS WANTING WHAT YOU HAVE!

              -- FROM MRS. SEVERN'S DESK
 Job cpu time:       0 days  0 hours  0 minutes 47.5 seconds.
 File lengths (MBytes):  RWF=      5 Int=      0 D2E=      0 Chk=      2 Scr=      1
 Normal termination of Gaussian 09 at Mon Dec  4 11:06:59 2017.
46.84user 0.71system 0:02.46elapsed 1931%CPU (0avgtext+0avgdata 428384maxresident)k
112800inputs+15632outputs (131major+24062minor)pagefaults 0swaps
