 Entering Gaussian System, Link 0=g09
 Initial command:
 /soft/gaussian/g09.d01_itasca/g09/l1.exe "/scratch/jgoodpas/2034011.node1081.localdomain/Gau-2589.inp" -scrdir="/scratch/jgoodpas/2034011.node1081.localdomain/"
 Entering Link 1 = /soft/gaussian/g09.d01_itasca/g09/l1.exe PID=      2590.
  
 Copyright (c) 1988,1990,1992,1993,1995,1998,2003,2009,2013,
            Gaussian, Inc.  All Rights Reserved.
  
 This is part of the Gaussian(R) 09 program.  It is based on
 the Gaussian(R) 03 system (copyright 2003, Gaussian, Inc.),
 the Gaussian(R) 98 system (copyright 1998, Gaussian, Inc.),
 the Gaussian(R) 94 system (copyright 1995, Gaussian, Inc.),
 the Gaussian 92(TM) system (copyright 1992, Gaussian, Inc.),
 the Gaussian 90(TM) system (copyright 1990, Gaussian, Inc.),
 the Gaussian 88(TM) system (copyright 1988, Gaussian, Inc.),
 the Gaussian 86(TM) system (copyright 1986, Carnegie Mellon
 University), and the Gaussian 82(TM) system (copyright 1983,
 Carnegie Mellon University). Gaussian is a federally registered
 trademark of Gaussian, Inc.
  
 This software contains proprietary and confidential information,
 including trade secrets, belonging to Gaussian, Inc.
  
 This software is provided under written license and may be
 used, copied, transmitted, or stored only in accord with that
 written license.
  
 The following legend is applicable only to US Government
 contracts under FAR:
  
                    RESTRICTED RIGHTS LEGEND
  
 Use, reproduction and disclosure by the US Government is
 subject to restrictions as set forth in subparagraphs (a)
 and (c) of the Commercial Computer Software - Restricted
 Rights clause in FAR 52.227-19.
  
 Gaussian, Inc.
 340 Quinnipiac St., Bldg. 40, Wallingford CT 06492
  
  
 ---------------------------------------------------------------
 Warning -- This program may not be used in any manner that
 competes with the business of Gaussian, Inc. or will provide
 assistance to any competitor of Gaussian, Inc.  The licensee
 of this program is prohibited from giving any competitor of
 Gaussian, Inc. access to this program.  By using this program,
 the user acknowledges that Gaussian, Inc. is engaged in the
 business of creating and licensing software in the field of
 computational chemistry and represents and warrants to the
 licensee that it is not a competitor of Gaussian, Inc. and that
 it will not use this program in any manner prohibited above.
 ---------------------------------------------------------------
  

 Cite this work as:
 Gaussian 09, Revision D.01,
 M. J. Frisch, G. W. Trucks, H. B. Schlegel, G. E. Scuseria, 
 M. A. Robb, J. R. Cheeseman, G. Scalmani, V. Barone, B. Mennucci, 
 G. A. Petersson, H. Nakatsuji, M. Caricato, X. Li, H. P. Hratchian, 
 A. F. Izmaylov, J. Bloino, G. Zheng, J. L. Sonnenberg, M. Hada, 
 M. Ehara, K. Toyota, R. Fukuda, J. Hasegawa, M. Ishida, T. Nakajima, 
 Y. Honda, O. Kitao, H. Nakai, T. Vreven, J. A. Montgomery, Jr., 
 J. E. Peralta, F. Ogliaro, M. Bearpark, J. J. Heyd, E. Brothers, 
 K. N. Kudin, V. N. Staroverov, T. Keith, R. Kobayashi, J. Normand, 
 K. Raghavachari, A. Rendell, J. C. Burant, S. S. Iyengar, J. Tomasi, 
 M. Cossi, N. Rega, J. M. Millam, M. Klene, J. E. Knox, J. B. Cross, 
 V. Bakken, C. Adamo, J. Jaramillo, R. Gomperts, R. E. Stratmann, 
 O. Yazyev, A. J. Austin, R. Cammi, C. Pomelli, J. W. Ochterski, 
 R. L. Martin, K. Morokuma, V. G. Zakrzewski, G. A. Voth, 
 P. Salvador, J. J. Dannenberg, S. Dapprich, A. D. Daniels, 
 O. Farkas, J. B. Foresman, J. V. Ortiz, J. Cioslowski, 
 and D. J. Fox, Gaussian, Inc., Wallingford CT, 2013.
 
 ******************************************
 Gaussian 09:  ES64L-G09RevD.01 24-Apr-2013
                17-Oct-2017 
 ******************************************
 %LindaWorkers=ic-node0139
 %Mem=11800mb
 %NProcShared=8
 Will use up to    8 processors via shared memory.
 %chk=dimer.chk
 SetLPE:  input flags=" -workerwait 250000 -opt "Tsnet.Node.lindarsharg: ssh " "
 SetLPE:    new flags=" -workerwait 250000 -opt "Tsnet.Node.lindarsharg: ssh "  -nodelist 'ic-node0139'"
 Will use up to    1 processors via Linda.
 -------------------------------------------------------------
 # Opt=(Z-mat,maxcycle=200) m06/def2svp Integral=SuperFineGrid
 -------------------------------------------------------------
 1/6=200,10=7,14=-1,18=40,26=5,38=1/1,3;
 2/12=2,17=6,18=5,29=3,40=1/2;
 3/5=43,7=101,11=2,16=1,25=1,30=1,71=1,74=-54,75=-7/1,2,3;
 4//1;
 5/5=2,38=5/2;
 6/7=2,8=2,9=2,10=2,28=1/1;
 7/29=1/1,2,3,16;
 1/6=200,10=7,14=-1,18=40,26=5/3(2);
 2/29=3/2;
 99//99;
 2/29=3/2;
 3/5=43,7=101,11=2,16=1,25=1,30=1,71=1,74=-54,75=-7/1,2,3;
 4/5=5,16=3,69=1/1;
 5/5=2,38=5/2;
 7//1,2,3,16;
 1/6=200,14=-1,18=40,26=5/3(-5);
 2/29=3/2;
 6/7=2,8=2,9=2,10=2,19=2,28=1/1;
 99/9=1/99;
 ------
 C12H24
 ------
 Symbolic Z-matrix:
 Charge =  0 Multiplicity = 1
 C
 C                    1    B1
 H                    1    B2       2    A2
 H                    1    B3       2    A3       3    D3       0
 H                    1    B4       2    A4       3    D4       0
 C                    2    B5       1    A5       3    D5       0
 H                    2    B6       1    A6       3    D6       0
 H                    2    B7       1    A7       3    D7       0
 C                    6    B8       2    A8       1    D8       0
 H                    6    B9       2    A9       1    D9       0
 H                    6    B10      2    A10      1    D10      0
 C                    9    B11      6    A11      2    D11      0
 H                    9    B12      6    A12      2    D12      0
 H                    9    B13      6    A13      2    D13      0
 C                    12   B14      9    A14      6    D14      0
 H                    12   B15      9    A15      6    D15      0
 H                    12   B16      9    A16      6    D16      0
 C                    15   B17      12   A17      9    D17      0
 H                    15   B18      12   A18      9    D18      0
 H                    15   B19      12   A19      9    D19      0
 C                    18   B20      15   A20      12   D20      0
 H                    18   B21      15   A21      12   D21      0
 H                    18   B22      15   A22      12   D22      0
 C                    21   B23      18   A23      15   D23      0
 H                    21   B24      18   A24      15   D24      0
 H                    21   B25      18   A25      15   D25      0
 C                    24   B26      21   A26      18   D26      0
 H                    24   B27      21   A27      18   D27      0
 H                    24   B28      21   A28      18   D28      0
 C                    27   B29      24   A29      21   D29      0
 H                    27   B30      24   A30      21   D30      0
 H                    27   B31      24   A31      21   D31      0
 C                    30   B32      27   A32      24   D32      0
 H                    33   B33      30   A33      27   D33      0
 H                    33   B34      30   A34      27   D34      0
 H                    30   B35      27   A35      24   D35      0
       Variables:
  B1                    1.52037                  
  B2                    1.09449                  
  A2                  110.2615                   
  B3                    1.09469                  
  A3                  110.99941                  
  D3                  240.2622                   
  B4                    1.09468                  
  A4                  111.00291                  
  D4                  119.74267                  
  B5                    1.52846                  
  A5                  111.49348                  
  D5                  180.02355                  
  B6                    1.09622                  
  A6                  109.14402                  
  D6                   58.466                    
  B7                    1.09622                  
  A7                  109.14651                  
  D7                  301.57536                  
  B8                    1.52957                  
  A8                  111.33085                  
  D8                  180.06732                  
  B9                    1.09685                  
  A9                  109.56808                  
  D9                   58.69294                  
  B10                   1.09685                  
  A10                 109.56982                  
  D10                 301.43153                  
  B11                   1.52959                  
  A11                 111.32932                  
  D11                 180.0495                   
  B12                   1.09682                  
  A12                 109.56214                  
  D12                  58.69169                  
  B13                   1.09682                  
  A13                 109.57144                  
  D13                 301.40424                  
  B14                   1.52958                  
  A14                 111.33412                  
  D14                 180.11548                  
  B15                   1.09681                  
  A15                 109.56324                  
  D15                  58.75236                  
  B16                   1.09681                  
  A16                 109.56894                  
  D16                 301.4668                   
  B17                   1.52958                  
  A17                 111.32441                  
  D17                 180.06818                  
  B18                   1.09681                  
  A18                 109.56207                  
  D18                  58.71257                  
  B19                   1.09681                  
  A19                 109.57415                  
  D19                 301.42268                  
  B20                   1.5296                   
  A20                 111.33392                  
  D20                 180.12584                  
  B21                   1.09681                  
  A21                 109.56096                  
  D21                  58.76319                  
  B22                   1.09681                  
  A22                 109.57002                  
  D22                 301.47796                  
  B23                   1.53006                  
  A23                 111.33208                  
  D23                 180.06793                  
  B24                   1.09681                  
  A24                 109.55355                  
  D24                  58.71484                  
  B25                   1.09681                  
  A25                 109.57481                  
  D25                 301.41764                  
  B26                   1.52997                  
  A26                 111.27387                  
  D26                 180.07455                  
  B27                   1.09745                  
  A27                 109.45602                  
  D27                  58.51678                  
  B28                   1.09744                  
  A28                 109.4982                   
  D28                 301.54273                  
  B29                   1.50175                  
  A29                 111.29171                  
  D29                 180.59371                  
  B30                   1.0969                   
  A30                 109.65896                  
  D30                  57.82495                  
  B31                   1.09657                  
  A31                 109.82846                  
  D31                 300.6713                   
  B32                   1.33889                  
  A32                 124.10415                  
  D32                 241.95558                  
  B33                   1.08555                  
  A33                 121.75919                  
  B34                   1.08571                  
  A34                 120.7488                   
  B35                   1.08828                  
  A35                 116.90896                  
  D35                  62.58421                  
       Constants:
  D33                 180.                       
  D34                 360.                       
 

 GradGradGradGradGradGradGradGradGradGradGradGradGradGradGradGradGradGrad
 Berny optimization.
 Initialization pass.
                       ----------------------------
                       !    Initial Parameters    !
                       ! (Angstroms and Degrees)  !
 ----------------------                            ----------------------
 !      Name          Value   Derivative information (Atomic Units)     !
 ------------------------------------------------------------------------
 !       B1          1.5204   estimate D2E/DX2                          !
 !       B2          1.0945   estimate D2E/DX2                          !
 !       A2        110.2615   estimate D2E/DX2                          !
 !       B3          1.0947   estimate D2E/DX2                          !
 !       A3        110.9994   estimate D2E/DX2                          !
 !       D3        240.2622   estimate D2E/DX2                          !
 !       B4          1.0947   estimate D2E/DX2                          !
 !       A4        111.0029   estimate D2E/DX2                          !
 !       D4        119.7427   estimate D2E/DX2                          !
 !       B5          1.5285   estimate D2E/DX2                          !
 !       A5        111.4935   estimate D2E/DX2                          !
 !       D5        180.0236   estimate D2E/DX2                          !
 !       B6          1.0962   estimate D2E/DX2                          !
 !       A6        109.144    estimate D2E/DX2                          !
 !       D6         58.466    estimate D2E/DX2                          !
 !       B7          1.0962   estimate D2E/DX2                          !
 !       A7        109.1465   estimate D2E/DX2                          !
 !       D7        301.5754   estimate D2E/DX2                          !
 !       B8          1.5296   estimate D2E/DX2                          !
 !       A8        111.3308   estimate D2E/DX2                          !
 !       D8        180.0673   estimate D2E/DX2                          !
 !       B9          1.0969   estimate D2E/DX2                          !
 !       A9        109.5681   estimate D2E/DX2                          !
 !       D9         58.6929   estimate D2E/DX2                          !
 !       B10         1.0969   estimate D2E/DX2                          !
 !       A10       109.5698   estimate D2E/DX2                          !
 !       D10       301.4315   estimate D2E/DX2                          !
 !       B11         1.5296   estimate D2E/DX2                          !
 !       A11       111.3293   estimate D2E/DX2                          !
 !       D11       180.0495   estimate D2E/DX2                          !
 !       B12         1.0968   estimate D2E/DX2                          !
 !       A12       109.5621   estimate D2E/DX2                          !
 !       D12        58.6917   estimate D2E/DX2                          !
 !       B13         1.0968   estimate D2E/DX2                          !
 !       A13       109.5714   estimate D2E/DX2                          !
 !       D13       301.4042   estimate D2E/DX2                          !
 !       B14         1.5296   estimate D2E/DX2                          !
 !       A14       111.3341   estimate D2E/DX2                          !
 !       D14       180.1155   estimate D2E/DX2                          !
 !       B15         1.0968   estimate D2E/DX2                          !
 !       A15       109.5632   estimate D2E/DX2                          !
 !       D15        58.7524   estimate D2E/DX2                          !
 !       B16         1.0968   estimate D2E/DX2                          !
 !       A16       109.5689   estimate D2E/DX2                          !
 !       D16       301.4668   estimate D2E/DX2                          !
 !       B17         1.5296   estimate D2E/DX2                          !
 !       A17       111.3244   estimate D2E/DX2                          !
 !       D17       180.0682   estimate D2E/DX2                          !
 !       B18         1.0968   estimate D2E/DX2                          !
 !       A18       109.5621   estimate D2E/DX2                          !
 !       D18        58.7126   estimate D2E/DX2                          !
 !       B19         1.0968   estimate D2E/DX2                          !
 !       A19       109.5742   estimate D2E/DX2                          !
 !       D19       301.4227   estimate D2E/DX2                          !
 !       B20         1.5296   estimate D2E/DX2                          !
 !       A20       111.3339   estimate D2E/DX2                          !
 !       D20       180.1258   estimate D2E/DX2                          !
 !       B21         1.0968   estimate D2E/DX2                          !
 !       A21       109.561    estimate D2E/DX2                          !
 !       D21        58.7632   estimate D2E/DX2                          !
 !       B22         1.0968   estimate D2E/DX2                          !
 !       A22       109.57     estimate D2E/DX2                          !
 !       D22       301.478    estimate D2E/DX2                          !
 !       B23         1.5301   estimate D2E/DX2                          !
 !       A23       111.3321   estimate D2E/DX2                          !
 !       D23       180.0679   estimate D2E/DX2                          !
 !       B24         1.0968   estimate D2E/DX2                          !
 !       A24       109.5536   estimate D2E/DX2                          !
 !       D24        58.7148   estimate D2E/DX2                          !
 !       B25         1.0968   estimate D2E/DX2                          !
 !       A25       109.5748   estimate D2E/DX2                          !
 !       D25       301.4176   estimate D2E/DX2                          !
 !       B26         1.53     estimate D2E/DX2                          !
 !       A26       111.2739   estimate D2E/DX2                          !
 !       D26       180.0745   estimate D2E/DX2                          !
 !       B27         1.0975   estimate D2E/DX2                          !
 !       A27       109.456    estimate D2E/DX2                          !
 !       D27        58.5168   estimate D2E/DX2                          !
 !       B28         1.0974   estimate D2E/DX2                          !
 !       A28       109.4982   estimate D2E/DX2                          !
 !       D28       301.5427   estimate D2E/DX2                          !
 !       B29         1.5018   estimate D2E/DX2                          !
 !       A29       111.2917   estimate D2E/DX2                          !
 !       D29       180.5937   estimate D2E/DX2                          !
 !       B30         1.0969   estimate D2E/DX2                          !
 !       A30       109.659    estimate D2E/DX2                          !
 !       D30        57.8249   estimate D2E/DX2                          !
 !       B31         1.0966   estimate D2E/DX2                          !
 !       A31       109.8285   estimate D2E/DX2                          !
 !       D31       300.6713   estimate D2E/DX2                          !
 !       B32         1.3389   estimate D2E/DX2                          !
 !       A32       124.1042   estimate D2E/DX2                          !
 !       D32       241.9556   estimate D2E/DX2                          !
 !       B33         1.0856   estimate D2E/DX2                          !
 !       A33       121.7592   estimate D2E/DX2                          !
 !       B34         1.0857   estimate D2E/DX2                          !
 !       A34       120.7488   estimate D2E/DX2                          !
 !       B35         1.0883   estimate D2E/DX2                          !
 !       A35       116.909    estimate D2E/DX2                          !
 !       D35        62.5842   estimate D2E/DX2                          !
 !       D33       180.0      Frozen                                    !
 !       D34       360.0      Frozen                                    !
 ------------------------------------------------------------------------
 Trust Radius=3.00D-01 FncErr=1.00D-07 GrdErr=1.00D-07
 Number of steps in this run=    200 maximum allowed number of steps=    204.
 GradGradGradGradGradGradGradGradGradGradGradGradGradGradGradGradGradGrad

 ---------------------------------------------------------------------------------------------------
                            Z-MATRIX (ANGSTROMS AND DEGREES)
   CD    Cent   Atom    N1       Length/X        N2       Alpha/Y        N3        Beta/Z          J
 ---------------------------------------------------------------------------------------------------
      1      1  C 
      2      2  C        1   1.520370(     1)
      3      3  H        1   1.094490(     2)      2  110.262(    36)
      4      4  H        1   1.094690(     3)      2  110.999(    37)      3  240.262(    70)      0
      5      5  H        1   1.094680(     4)      2  111.003(    38)      3  119.743(    71)      0
      6      6  C        2   1.528460(     5)      1  111.493(    39)      3  180.024(    72)      0
      7      7  H        2   1.096220(     6)      1  109.144(    40)      3   58.466(    73)      0
      8      8  H        2   1.096220(     7)      1  109.147(    41)      3  301.575(    74)      0
      9      9  C        6   1.529570(     8)      2  111.331(    42)      1  180.067(    75)      0
     10     10  H        6   1.096850(     9)      2  109.568(    43)      1   58.693(    76)      0
     11     11  H        6   1.096850(    10)      2  109.570(    44)      1  301.432(    77)      0
     12     12  C        9   1.529590(    11)      6  111.329(    45)      2  180.050(    78)      0
     13     13  H        9   1.096820(    12)      6  109.562(    46)      2   58.692(    79)      0
     14     14  H        9   1.096820(    13)      6  109.571(    47)      2  301.404(    80)      0
     15     15  C       12   1.529580(    14)      9  111.334(    48)      6  180.115(    81)      0
     16     16  H       12   1.096810(    15)      9  109.563(    49)      6   58.752(    82)      0
     17     17  H       12   1.096810(    16)      9  109.569(    50)      6  301.467(    83)      0
     18     18  C       15   1.529580(    17)     12  111.324(    51)      9  180.068(    84)      0
     19     19  H       15   1.096810(    18)     12  109.562(    52)      9   58.713(    85)      0
     20     20  H       15   1.096810(    19)     12  109.574(    53)      9  301.423(    86)      0
     21     21  C       18   1.529600(    20)     15  111.334(    54)     12  180.126(    87)      0
     22     22  H       18   1.096810(    21)     15  109.561(    55)     12   58.763(    88)      0
     23     23  H       18   1.096810(    22)     15  109.570(    56)     12  301.478(    89)      0
     24     24  C       21   1.530060(    23)     18  111.332(    57)     15  180.068(    90)      0
     25     25  H       21   1.096810(    24)     18  109.554(    58)     15   58.715(    91)      0
     26     26  H       21   1.096810(    25)     18  109.575(    59)     15  301.418(    92)      0
     27     27  C       24   1.529970(    26)     21  111.274(    60)     18  180.075(    93)      0
     28     28  H       24   1.097450(    27)     21  109.456(    61)     18   58.517(    94)      0
     29     29  H       24   1.097440(    28)     21  109.498(    62)     18  301.543(    95)      0
     30     30  C       27   1.501750(    29)     24  111.292(    63)     21  180.594(    96)      0
     31     31  H       27   1.096900(    30)     24  109.659(    64)     21   57.825(    97)      0
     32     32  H       27   1.096570(    31)     24  109.828(    65)     21  300.671(    98)      0
     33     33  C       30   1.338890(    32)     27  124.104(    66)     24  241.956(    99)      0
     34     34  H       33   1.085550(    33)     30  121.759(    67)     27  180.000(   100)      0
     35     35  H       33   1.085710(    34)     30  120.749(    68)     27  360.000(   101)      0
     36     36  H       30   1.088280(    35)     27  116.909(    69)     24   62.584(   102)      0
 ---------------------------------------------------------------------------------------------------
                         Z-Matrix orientation:                         
 ---------------------------------------------------------------------
 Center     Atomic      Atomic             Coordinates (Angstroms)
 Number     Number       Type             X           Y           Z
 ---------------------------------------------------------------------
      1          6           0        0.000000    0.000000    0.000000
      2          6           0        0.000000    0.000000    1.520370
      3          1           0        1.026765    0.000000   -0.379028
      4          1           0       -0.506937    0.887394   -0.392291
      5          1           0       -0.506996   -0.887322   -0.392350
      6          6           0       -1.422170   -0.000585    2.080391
      7          1           0        0.541621    0.882669    1.879869
      8          1           0        0.542250   -0.882265    1.879914
      9          6           0       -1.417829    0.001091    3.609954
     10          1           0       -1.960390   -0.883823    1.715305
     11          1           0       -1.961845    0.881033    1.713538
     12          6           0       -2.841064   -0.000725    4.170352
     13          1           0       -0.880476    0.884957    3.974709
     14          1           0       -0.877544   -0.880117    3.976802
     15          6           0       -2.836857    0.003823    5.699919
     16          1           0       -3.377699   -0.885606    3.807035
     17          1           0       -3.382035    0.879433    3.802024
     18          6           0       -4.260172    0.000310    6.260077
     19          1           0       -2.301279    0.889417    6.063059
     20          1           0       -2.294922   -0.875633    6.068507
     21          6           0       -4.256232    0.007986    7.789653
     22          1           0       -4.794941   -0.886396    5.898461
     23          1           0       -4.802856    0.878620    5.889863
     24          6           0       -5.680003    0.002782    8.349950
     25          1           0       -3.722490    0.895453    8.150919
     26          1           0       -3.712685   -0.869677    8.160135
     27          6           0       -5.674519    0.012323    9.879880
     28          1           0       -6.213070   -0.884521    7.985355
     29          1           0       -6.223979    0.879534    7.976089
     30          6           0       -7.071612   -0.007278   10.430335
     31          1           0       -5.128482    0.892261   10.241464
     32          1           0       -5.141577   -0.869376   10.255440
     33          6           0       -7.595135    0.967368   11.184400
     34          1           0       -8.611193    0.913770   11.562780
     35          1           0       -7.010896    1.846108   11.439836
     36          1           0       -7.679357   -0.880293   10.200458
 ---------------------------------------------------------------------
                    Distance matrix (angstroms):
                    1          2          3          4          5
     1  C    0.000000
     2  C    1.520370   0.000000
     3  H    1.094490   2.159157   0.000000
     4  H    1.094690   2.168577   1.771972   0.000000
     5  H    1.094680   2.168613   1.771988   1.774717   0.000000
     6  C    2.520038   1.528460   3.470738   2.782142   2.781779
     7  H    2.146244   1.096220   2.473274   2.502440   3.065199
     8  H    2.146276   1.096220   2.473047   3.065192   2.502823
     9  C    3.878402   2.525193   4.678463   4.199193   4.199682
    10  H    2.750735   2.159230   3.753727   3.113149   2.560191
    11  H    2.749776   2.159252   3.753244   2.559554   3.111018
    12  C    5.046135   3.885106   5.971344   5.201405   5.201170
    13  H    4.166137   2.753574   4.834847   4.382948   4.727755
    14  H    4.166491   2.752953   4.834693   4.727624   4.384843
    15  C    6.366856   5.051376   7.202859   6.582116   6.583171
    16  H    5.165913   4.173965   6.140580   5.386942   5.086823
    17  H    5.164005   4.173428   6.139390   5.085128   5.383311
    18  C    7.572162   6.372903   8.487015   7.689454   7.689539
    19  H    6.545810   5.169427   7.305301   6.700091   6.931707
    20  H    6.546768   5.169037   7.305548   6.931599   6.703692
    21  C    8.876613   7.577564   9.728179   9.042941   9.044530
    22  H    7.653038   6.553231   8.607254   7.817088   7.613197
    23  H    7.650482   6.552241   8.605547   7.610549   7.812756
    24  C   10.098718   8.882882  11.007988  10.196564  10.197063
    25  H    9.005346   7.656563   9.803941   9.128324   9.300814
    26  H    9.007118   7.656817   9.804898   9.300974   9.133551
    27  C   11.393522  10.103550  12.253675  11.532006  11.533922
    28  H   10.156304   9.010030  11.097769  10.290024  10.136332
    29  H   10.155269   9.010427  11.097515  10.134812  10.287684
    30  C   12.601572  11.375202  13.506520  12.689548  12.688545
    31  H   11.488475  10.156522  12.307642  11.594631  11.730433
    32  H   11.505028  10.173154  12.324616  11.744799  11.612713
    33  C   13.554065  12.329451  14.456342  13.574562  13.700465
    34  H   14.445951  13.260378  15.373093  14.443109  14.554968
    35  H   13.543657  12.286439  14.411719  13.535873  13.775812
    36  H   12.798312  11.622882  13.729421  12.914127  12.792592
                    6          7          8          9         10
     6  C    0.000000
     7  H    2.162596   0.000000
     8  H    2.162521   1.764935   0.000000
     9  C    1.529570   2.758590   2.759577   0.000000
    10  H    1.096850   3.067188   2.508049   2.160357   0.000000
    11  H    1.096850   2.508986   3.067147   2.160241   1.764858
    12  C    2.526103   4.179624   4.179717   1.529590   2.753671
    13  H    2.160106   2.531941   3.087943   1.096820   3.065894
    14  H    2.160225   3.085219   2.532343   1.096820   2.507378
    15  C    3.886174   5.174869   5.176481   2.526184   4.175316
    16  H    2.754752   4.711883   4.368044   2.160130   2.526678
    17  H    2.753093   4.369184   4.711486   2.160203   3.079698
    18  C    5.052132   6.559116   6.559576   3.886138   5.169685
    19  H    4.174516   5.057787   5.359405   2.754511   4.707818
    20  H    4.175222   5.355585   5.059042   2.753620   4.366045
    21  C    6.373983   7.662246   7.664398   5.052372   6.554687
    22  H    5.170871   6.910685   6.680894   4.174899   5.053066
    23  H    5.168570   6.681580   6.910178   4.174500   5.349089
    24  C    7.578689   9.019133   9.020039   6.374456   7.657682
    25  H    6.553295   7.583462   7.789339   5.170272   6.905647
    26  H    6.554775   7.785345   7.585896   5.169986   6.678816
    27  C    8.883393  10.168485  10.170937   7.578358   9.014328
    28  H    7.655238   9.275008   9.105535   6.551548   7.576200
    29  H    7.654491   9.106989   9.276268   6.552394   7.777212
    30  C   10.081558  11.483196  11.482430   8.859059  10.141236
    31  H    9.007611  10.102794  10.257762   7.651148   9.267507
    32  H    9.023315  10.272224  10.122030   7.667235   9.113400
    33  C   11.041984  12.360756  12.498466   9.821662  11.173228
    34  H   11.934564  13.324180  13.445043  10.762199  12.018207
    35  H   11.056372  12.221363  12.485438   9.797630  11.292770
    36  H   10.288916  11.828979  11.697277   9.133363  10.232518
                   11         12         13         14         15
    11  H    0.000000
    12  C    2.754352   0.000000
    13  H    2.506446   2.160234   0.000000
    14  H    3.065897   2.160139   1.765078   0.000000
    15  C    4.174491   1.529580   2.753212   2.754885   0.000000
    16  H    3.083567   1.096810   3.065801   2.505919   2.160233
    17  H    2.525611   1.096810   2.507518   3.065785   2.160074
    18  C    5.170010   2.526029   4.174668   4.175006   1.529580
    19  H    4.362754   2.160107   2.525848   3.083949   1.096810
    20  H    4.707714   2.160261   3.079663   2.526699   1.096810
    21  C    6.553289   3.886145   5.169004   5.171276   2.526189
    22  H    5.353860   2.754707   4.707605   4.363349   2.160092
    23  H    5.051043   2.752925   4.364965   4.707550   2.160208
    24  C    7.657544   5.052586   6.554115   6.554963   3.886662
    25  H    6.673826   4.174322   5.051523   5.354402   2.754406
    26  H    6.905725   4.175306   5.349574   5.053554   2.753678
    27  C    9.012644   6.373959   7.656068   7.658573   5.052175
    28  H    7.779832   5.167763   6.903107   6.673556   4.172671
    29  H    7.575310   5.167456   6.675634   6.904711   4.173777
    30  C   10.143045   7.555459   8.988957   8.987569   6.349024
    31  H    9.096881   6.548902   7.570854   7.775461   5.163962
    32  H    9.281094   6.563171   7.789881   7.589689   5.179477
    33  C   11.019920   8.528498   9.852567  10.024405   7.324559
    34  H   11.883706   9.422245  10.832527  10.980639   8.279137
    35  H   11.001144   8.581591   9.707419  10.037290   7.332344
    36  H   10.383642   7.781061   9.386205   9.219466   6.669807
                   16         17         18         19         20
    16  H    0.000000
    17  H    1.765051   0.000000
    18  C    2.753366   2.754271   0.000000
    19  H    3.065784   2.506075   2.160229   0.000000
    20  H    2.507341   3.065781   2.160135   1.765070   0.000000
    21  C    4.175114   4.174306   1.529600   2.753160   2.754971
    22  H    2.526388   3.083748   1.096810   3.065771   2.505818
    23  H    3.079243   2.525432   1.096810   2.507588   3.065787
    24  C    5.169905   5.170378   2.526558   4.175137   4.175568
    25  H    4.707482   4.362231   2.160015   2.525676   3.084013
    26  H    4.366000   4.707638   2.160287   3.079644   2.526855
    27  C    6.554472   6.553449   3.886321   5.168768   5.170755
    28  H    5.049524   5.350379   2.751966   4.705761   4.361911
    29  H    5.347714   5.049700   2.752139   4.364327   4.707119
    30  C    7.634432   7.637653   5.029443   6.529413   6.526588
    31  H    6.901300   6.672079   4.171449   5.045013   5.344912
    32  H    6.685317   6.913819   4.182840   5.360662   5.062992
    33  C    8.697460   8.500437   6.025457   7.366079   7.593502
    34  H    9.527791   9.358131   6.919859   8.370337   8.560624
    35  H    8.883808   8.511127   6.148443   7.211483   7.648494
    36  H    7.705852   7.905921   5.290831   7.012394   6.787134
                   21         22         23         24         25
    21  C    0.000000
    22  H    2.160262   0.000000
    23  H    2.160093   1.765055   0.000000
    24  C    1.530060   2.753865   2.754724   0.000000
    25  H    1.096810   3.065731   2.505963   2.160632   0.000000
    26  H    1.096810   2.507335   3.065803   2.160452   1.765182
    27  C    2.525986   4.175291   4.174985   1.529970   2.753114
    28  H    2.159649   2.523137   3.080334   1.097450   3.065731
    29  H    2.160181   3.078506   2.524268   1.097440   2.507641
    30  C    3.860025   5.147228   5.152471   2.502934   4.150575
    31  H    2.748480   4.704950   4.363789   2.161753   2.519365
    32  H    2.762916   4.370779   4.714709   2.163667   3.091510
    33  C    4.857262   6.262482   5.986387   3.554190   4.919812
    34  H    5.832891   7.063207   6.832764   4.443428   5.961589
    35  H    4.928560   6.563831   6.050924   3.836212   4.747034
    36  H    4.280048   5.179486   5.472593   2.863847   4.796945
                   26         27         28         29         30
    26  H    0.000000
    27  C    2.753949   0.000000
    28  H    2.506530   2.164161   0.000000
    29  H    3.065976   2.162957   1.764112   0.000000
    30  C    4.144867   1.501750   2.735795   2.743764   0.000000
    31  H    3.072595   1.096900   3.069742   2.516387   2.149557
    32  H    2.536145   1.096570   2.510302   3.070134   2.121046
    33  C    5.253030   2.510508   3.946326   3.490136   1.338890
    34  H    6.225276   3.502687   4.667206   4.308633   2.121573
    35  H    5.386104   2.753567   4.475076   3.681175   2.111355
    36  H    4.460663   2.217862   2.656445   3.187936   1.088280
                   31         32         33         34         35
    31  H    0.000000
    32  H    1.761741   0.000000
    33  C    2.641807   3.202584   0.000000
    34  H    3.724999   4.114242   1.085550   0.000000
    35  H    2.426809   3.502999   1.085710   1.856157   0.000000
    36  H    3.106541   2.538400   2.095015   2.437807   3.068576
                   36
    36  H    0.000000
 Stoichiometry    C12H24
 Framework group  C1[X(C12H24)]
 Deg. of freedom   102
 Full point group                 C1      NOp   1
 Largest Abelian subgroup         C1      NOp   1
 Largest concise Abelian subgroup C1      NOp   1
                         Standard orientation:                         
 ---------------------------------------------------------------------
 Center     Atomic      Atomic             Coordinates (Angstroms)
 Number     Number       Type             X           Y           Z
 ---------------------------------------------------------------------
      1          6           0       -6.772590   -0.424793    0.091188
      2          6           0       -5.523377    0.441556    0.111962
      3          1           0       -7.668472    0.200200    0.159662
      4          1           0       -6.780018   -1.122743    0.934490
      5          1           0       -6.832713   -1.004421   -0.835494
      6          6           0       -4.253729   -0.404120    0.017015
      7          1           0       -5.510094    1.031135    1.036039
      8          1           0       -5.562806    1.149426   -0.724138
      9          6           0       -2.999383    0.470910    0.039897
     10          1           0       -4.273555   -0.994060   -0.907462
     11          1           0       -4.221791   -1.114004    0.852554
     12          6           0       -1.728855   -0.375341   -0.056349
     13          1           0       -2.979316    1.059909    0.964933
     14          1           0       -3.031660    1.181264   -0.795190
     15          6           0       -0.474345    0.499391   -0.030613
     16          1           0       -1.748179   -0.962865   -0.982327
     17          1           0       -1.697435   -1.087029    0.777620
     18          6           0        0.795982   -0.346950   -0.128560
     19          1           0       -0.454543    1.085900    0.895998
     20          1           0       -0.506079    1.211969   -0.863810
     21          6           0        2.050744    0.527360   -0.099723
     22          1           0        0.776938   -0.931854   -1.056201
     23          1           0        0.826772   -1.060992    0.703418
     24          6           0        3.321393   -0.319163   -0.199388
     25          1           0        2.070107    1.111172    0.828598
     26          1           0        2.019702    1.242218   -0.930991
     27          6           0        4.575623    0.556489   -0.168575
     28          1           0        3.298916   -0.904330   -1.127542
     29          1           0        3.349877   -1.036237    0.630894
     30          6           0        5.822573   -0.272830   -0.280820
     31          1           0        4.588026    1.151056    0.753123
     32          1           0        4.554670    1.265825   -1.004559
     33          6           0        6.769082   -0.336960    0.663974
     34          1           0        7.656746   -0.949977    0.542804
     35          1           0        6.672486    0.228490    1.585767
     36          1           0        5.953720   -0.843350   -1.198240
 ---------------------------------------------------------------------
 Rotational constants (GHZ):      6.3673876      0.1581704      0.1570117
 Standard basis: def2SVP (5D, 7F)
 There are   300 symmetry adapted cartesian basis functions of A   symmetry.
 There are   288 symmetry adapted basis functions of A   symmetry.
   288 basis functions,   468 primitive gaussians,   300 cartesian basis functions
    48 alpha electrons       48 beta electrons
       nuclear repulsion energy       654.7636295070 Hartrees.
 NAtoms=   36 NActive=   36 NUniq=   36 SFac= 1.00D+00 NAtFMM=   60 NAOKFM=F Big=F
 Integral buffers will be    131072 words long.
 Raffenetti 2 integral format.
 Two-electron integral symmetry is turned on.
 One-electron integrals computed using PRISM.
   1 Symmetry operations used in ECPInt.
 ECPInt:  NShTT=   10440 NPrTT=   35208 LenC2=    8762 LenP2D=   21883.
 LDataN:  DoStor=T MaxTD1= 4 Len=   56
 NBasis=   288 RedAO= T EigKep=  7.65D-04  NBF=   288
 NBsUse=   288 1.00D-06 EigRej= -1.00D+00 NBFU=   288
 ExpMin= 1.22D-01 ExpMax= 1.24D+03 ExpMxC= 1.86D+02 IAcc=3 IRadAn=         7 AccDes= 0.00D+00
 Harris functional with IExCor= 1009 and IRadAn=       7 diagonalized for initial guess.
 HarFok:  IExCor= 1009 AccDes= 0.00D+00 IRadAn=         7 IDoV= 1 UseB2=F ITyADJ=14
 ICtDFT=  3500011 ScaDFX=  1.000000  1.000000  1.000000  1.000000
 FoFCou: FMM=F IPFlag=           0 FMFlag=      100000 FMFlg1=           0
         NFxFlg=           0 DoJE=T BraDBF=F KetDBF=T FulRan=T
         wScrn=  0.000000 ICntrl=     500 IOpCl=  0 I1Cent=   200000004 NGrid=           0
         NMat0=    1 NMatS0=      1 NMatT0=    0 NMatD0=    1 NMtDS0=    0 NMtDT0=    0
 Petite list used in FoFCou.
 Keep R1 ints in memory in canonical form, NReq=879895090.
 Requested convergence on RMS density matrix=1.00D-08 within 128 cycles.
 Requested convergence on MAX density matrix=1.00D-06.
 Requested convergence on             energy=1.00D-06.
 No special actions if energy rises.
 Integral accuracy reduced to 1.0D-05 until final iterations.
 Initial convergence to 1.0D-05 achieved.  Increase integral accuracy.
 SCF Done:  E(RM06) =  -470.974938616     A.U. after   12 cycles
            NFock= 12  Conv=0.71D-08     -V/T= 2.0127

 **********************************************************************

            Population analysis using the SCF density.

 **********************************************************************

 Orbital symmetries:
       Occupied  (A) (A) (A) (A) (A) (A) (A) (A) (A) (A) (A) (A)
                 (A) (A) (A) (A) (A) (A) (A) (A) (A) (A) (A) (A)
                 (A) (A) (A) (A) (A) (A) (A) (A) (A) (A) (A) (A)
                 (A) (A) (A) (A) (A) (A) (A) (A) (A) (A) (A) (A)
       Virtual   (A) (A) (A) (A) (A) (A) (A) (A) (A) (A) (A) (A)
                 (A) (A) (A) (A) (A) (A) (A) (A) (A) (A) (A) (A)
                 (A) (A) (A) (A) (A) (A) (A) (A) (A) (A) (A) (A)
                 (A) (A) (A) (A) (A) (A) (A) (A) (A) (A) (A) (A)
                 (A) (A) (A) (A) (A) (A) (A) (A) (A) (A) (A) (A)
                 (A) (A) (A) (A) (A) (A) (A) (A) (A) (A) (A) (A)
                 (A) (A) (A) (A) (A) (A) (A) (A) (A) (A) (A) (A)
                 (A) (A) (A) (A) (A) (A) (A) (A) (A) (A) (A) (A)
                 (A) (A) (A) (A) (A) (A) (A) (A) (A) (A) (A) (A)
                 (A) (A) (A) (A) (A) (A) (A) (A) (A) (A) (A) (A)
                 (A) (A) (A) (A) (A) (A) (A) (A) (A) (A) (A) (A)
                 (A) (A) (A) (A) (A) (A) (A) (A) (A) (A) (A) (A)
                 (A) (A) (A) (A) (A) (A) (A) (A) (A) (A) (A) (A)
                 (A) (A) (A) (A) (A) (A) (A) (A) (A) (A) (A) (A)
                 (A) (A) (A) (A) (A) (A) (A) (A) (A) (A) (A) (A)
                 (A) (A) (A) (A) (A) (A) (A) (A) (A) (A) (A) (A)
                 (A) (A) (A) (A) (A) (A) (A) (A) (A) (A) (A) (A)
                 (A) (A) (A) (A) (A) (A) (A) (A) (A) (A) (A) (A)
                 (A) (A) (A) (A) (A) (A) (A) (A) (A) (A) (A) (A)
                 (A) (A) (A) (A) (A) (A) (A) (A) (A) (A) (A) (A)
 The electronic state is 1-A.
 Alpha  occ. eigenvalues --  -10.24845 -10.24467 -10.24167 -10.23919 -10.23789
 Alpha  occ. eigenvalues --  -10.23740 -10.23718 -10.23671 -10.23663 -10.23642
 Alpha  occ. eigenvalues --  -10.23633 -10.23200  -0.82201  -0.81029  -0.79020
 Alpha  occ. eigenvalues --   -0.76306  -0.73020  -0.69199  -0.64896  -0.60613
 Alpha  occ. eigenvalues --   -0.58416  -0.57683  -0.57499  -0.55333  -0.49731
 Alpha  occ. eigenvalues --   -0.48566  -0.47082  -0.45492  -0.44597  -0.43742
 Alpha  occ. eigenvalues --   -0.43178  -0.42289  -0.40623  -0.40422  -0.38986
 Alpha  occ. eigenvalues --   -0.37677  -0.36960  -0.36088  -0.35213  -0.34461
 Alpha  occ. eigenvalues --   -0.34291  -0.33816  -0.33590  -0.33350  -0.33054
 Alpha  occ. eigenvalues --   -0.32920  -0.30416  -0.26560
 Alpha virt. eigenvalues --    0.02224   0.06306   0.07016   0.07897   0.08159
 Alpha virt. eigenvalues --    0.08699   0.09141   0.09614   0.10234   0.10999
 Alpha virt. eigenvalues --    0.11231   0.12732   0.13555   0.13735   0.14958
 Alpha virt. eigenvalues --    0.15562   0.15919   0.16211   0.16247   0.16956
 Alpha virt. eigenvalues --    0.17161   0.18297   0.18576   0.19608   0.19802
 Alpha virt. eigenvalues --    0.20507   0.20829   0.22690   0.23223   0.23717
 Alpha virt. eigenvalues --    0.25879   0.26618   0.28255   0.32437   0.32690
 Alpha virt. eigenvalues --    0.35552   0.38423   0.40604   0.41484   0.41860
 Alpha virt. eigenvalues --    0.42577   0.42808   0.43411   0.43814   0.44501
 Alpha virt. eigenvalues --    0.44590   0.47495   0.48183   0.49005   0.50393
 Alpha virt. eigenvalues --    0.52024   0.52658   0.54069   0.55095   0.58790
 Alpha virt. eigenvalues --    0.59266   0.61278   0.61564   0.61950   0.62175
 Alpha virt. eigenvalues --    0.62326   0.62629   0.62891   0.63128   0.63268
 Alpha virt. eigenvalues --    0.64260   0.64403   0.65031   0.65150   0.65672
 Alpha virt. eigenvalues --    0.66096   0.66237   0.66485   0.66624   0.67084
 Alpha virt. eigenvalues --    0.67227   0.67518   0.68437   0.68718   0.69079
 Alpha virt. eigenvalues --    0.69501   0.69934   0.70369   0.70998   0.71090
 Alpha virt. eigenvalues --    0.71647   0.71823   0.72037   0.72972   0.73355
 Alpha virt. eigenvalues --    0.77230   0.82099   0.85145   0.87938   0.88717
 Alpha virt. eigenvalues --    0.94344   0.98301   0.98799   0.99841   1.00187
 Alpha virt. eigenvalues --    1.01969   1.02247   1.02751   1.03050   1.05212
 Alpha virt. eigenvalues --    1.06154   1.08392   1.09645   1.17425   1.18588
 Alpha virt. eigenvalues --    1.21203   1.23051   1.26836   1.27560   1.31595
 Alpha virt. eigenvalues --    1.31967   1.32989   1.33813   1.34869   1.35911
 Alpha virt. eigenvalues --    1.36288   1.37477   1.37888   1.38101   1.42458
 Alpha virt. eigenvalues --    1.50560   1.52653   1.57802   1.59246   1.62604
 Alpha virt. eigenvalues --    1.64386   1.65460   1.66325   1.66664   1.69958
 Alpha virt. eigenvalues --    1.71545   1.72915   1.73778   1.74044   1.74450
 Alpha virt. eigenvalues --    1.74739   1.76025   1.76545   1.76725   1.78017
 Alpha virt. eigenvalues --    1.78292   1.79108   1.79848   1.79983   1.80241
 Alpha virt. eigenvalues --    1.80428   1.80668   1.81118   1.81662   1.82385
 Alpha virt. eigenvalues --    1.82632   1.83965   1.84429   1.84773   1.85722
 Alpha virt. eigenvalues --    1.87012   1.88033   1.89567   1.90780   1.91349
 Alpha virt. eigenvalues --    1.91496   1.92273   1.93405   1.93701   1.94703
 Alpha virt. eigenvalues --    1.96559   1.99152   1.99618   2.01285   2.04280
 Alpha virt. eigenvalues --    2.05399   2.06570   2.09701   2.10322   2.11688
 Alpha virt. eigenvalues --    2.14094   2.14835   2.17615   2.22171   2.23359
 Alpha virt. eigenvalues --    2.27801   2.29832   2.31354   2.36363   2.37443
 Alpha virt. eigenvalues --    2.39518   2.39838   2.41243   2.41487   2.42019
 Alpha virt. eigenvalues --    2.42783   2.43601   2.44092   2.45681   2.46808
 Alpha virt. eigenvalues --    2.49136   2.50440   2.51196   2.52832   2.55468
 Alpha virt. eigenvalues --    2.56506   2.57506   2.58109   2.58630   2.59796
 Alpha virt. eigenvalues --    2.60494   2.61531   2.63247   2.65376   2.68762
 Alpha virt. eigenvalues --    2.72536   2.75088   2.78438   2.79192   2.80318
 Alpha virt. eigenvalues --    2.82374   2.83929   2.85216   2.85874   2.88494
 Alpha virt. eigenvalues --    2.90028   2.91770   2.92511   2.94922   2.95791
 Alpha virt. eigenvalues --    2.96874   2.97772   2.99754   3.00300   3.01298
 Alpha virt. eigenvalues --    3.04152   3.04632   3.06274   3.07604   3.20801
          Condensed to atoms (all electrons):
               1          2          3          4          5          6
     1  C    4.571384   0.421784   0.377962   0.394071   0.394030  -0.058835
     2  C    0.421784   4.674027  -0.014017  -0.023345  -0.023340   0.398590
     3  H    0.377962  -0.014017   0.656477  -0.024836  -0.024840   0.008284
     4  H    0.394071  -0.023345  -0.024836   0.653199  -0.027912  -0.008668
     5  H    0.394030  -0.023340  -0.024840  -0.027912   0.653293  -0.008667
     6  C   -0.058835   0.398590   0.008284  -0.008668  -0.008667   4.752059
     7  H   -0.023836   0.375245  -0.006693  -0.010178   0.008805  -0.022824
     8  H   -0.023805   0.375176  -0.006705   0.008804  -0.010167  -0.022764
     9  C    0.009389  -0.046181  -0.000555   0.000467   0.000469   0.364276
    10  H   -0.004395  -0.027301  -0.000047  -0.001941   0.007553   0.374678
    11  H   -0.004378  -0.027361  -0.000045   0.007555  -0.001947   0.374811
    12  C   -0.000510   0.008367   0.000016  -0.000008  -0.000008  -0.043099
    13  H    0.000294  -0.006640   0.000008  -0.000053   0.000024  -0.022340
    14  H    0.000298  -0.006629   0.000008   0.000024  -0.000053  -0.022315
    15  C    0.000009  -0.000440   0.000000   0.000000   0.000000   0.008161
    16  H    0.000007   0.000318   0.000000   0.000004  -0.000010  -0.007045
    17  H    0.000007   0.000325   0.000000  -0.000010   0.000004  -0.007023
    18  C    0.000000   0.000008   0.000000   0.000000   0.000000  -0.000458
    19  H    0.000000   0.000003   0.000000   0.000000   0.000000   0.000376
    20  H    0.000000   0.000003   0.000000   0.000000   0.000000   0.000385
    21  C    0.000000   0.000000   0.000000   0.000000   0.000000   0.000008
    22  H    0.000000   0.000000   0.000000   0.000000   0.000000   0.000003
    23  H    0.000000   0.000000   0.000000   0.000000   0.000000   0.000004
    24  C    0.000000   0.000000   0.000000   0.000000   0.000000   0.000000
    25  H    0.000000   0.000000   0.000000   0.000000   0.000000   0.000000
    26  H    0.000000   0.000000   0.000000   0.000000   0.000000   0.000000
    27  C    0.000000   0.000000   0.000000   0.000000   0.000000   0.000000
    28  H    0.000000   0.000000   0.000000   0.000000   0.000000   0.000000
    29  H    0.000000   0.000000   0.000000   0.000000   0.000000   0.000000
    30  C    0.000000   0.000000   0.000000   0.000000   0.000000   0.000000
    31  H    0.000000   0.000000   0.000000   0.000000   0.000000   0.000000
    32  H    0.000000   0.000000   0.000000   0.000000   0.000000   0.000000
    33  C    0.000000   0.000000   0.000000   0.000000   0.000000   0.000000
    34  H    0.000000   0.000000   0.000000   0.000000   0.000000   0.000000
    35  H    0.000000   0.000000   0.000000   0.000000   0.000000   0.000000
    36  H    0.000000   0.000000   0.000000   0.000000   0.000000   0.000000
               7          8          9         10         11         12
     1  C   -0.023836  -0.023805   0.009389  -0.004395  -0.004378  -0.000510
     2  C    0.375245   0.375176  -0.046181  -0.027301  -0.027361   0.008367
     3  H   -0.006693  -0.006705  -0.000555  -0.000047  -0.000045   0.000016
     4  H   -0.010178   0.008804   0.000467  -0.001941   0.007555  -0.000008
     5  H    0.008805  -0.010167   0.000469   0.007553  -0.001947  -0.000008
     6  C   -0.022824  -0.022764   0.364276   0.374678   0.374811  -0.043099
     7  H    0.691032  -0.034882  -0.007351   0.009505  -0.011838   0.000362
     8  H   -0.034882   0.691095  -0.007366  -0.011878   0.009503   0.000357
     9  C   -0.007351  -0.007366   4.749893  -0.020957  -0.020972   0.364127
    10  H    0.009505  -0.011878  -0.020957   0.696321  -0.037161  -0.007313
    11  H   -0.011838   0.009503  -0.020972  -0.037161   0.696140  -0.007330
    12  C    0.000362   0.000357   0.364127  -0.007313  -0.007330   4.747628
    13  H    0.007903  -0.002030   0.372271   0.009444  -0.011953  -0.021275
    14  H   -0.002039   0.007901   0.372152  -0.011929   0.009443  -0.021188
    15  C    0.000004   0.000004  -0.044193   0.000436   0.000430   0.366811
    16  H    0.000015  -0.000040  -0.021627   0.007735  -0.002009   0.371729
    17  H   -0.000040   0.000015  -0.021704  -0.002020   0.007742   0.371939
    18  C    0.000000   0.000000   0.008385   0.000001   0.000001  -0.045395
    19  H   -0.000013   0.000005  -0.007110   0.000014  -0.000040  -0.021313
    20  H    0.000005  -0.000012  -0.007104  -0.000040   0.000014  -0.021260
    21  C    0.000000   0.000000  -0.000460   0.000000   0.000000   0.008403
    22  H    0.000000   0.000000   0.000389  -0.000012   0.000005  -0.007178
    23  H    0.000000   0.000000   0.000390   0.000005  -0.000012  -0.007092
    24  C    0.000000   0.000000   0.000008   0.000000   0.000000  -0.000448
    25  H    0.000000   0.000000   0.000003   0.000000   0.000000   0.000381
    26  H    0.000000   0.000000   0.000002   0.000000   0.000000   0.000389
    27  C    0.000000   0.000000   0.000000   0.000000   0.000000   0.000007
    28  H    0.000000   0.000000   0.000000   0.000000   0.000000   0.000000
    29  H    0.000000   0.000000   0.000000   0.000000   0.000000  -0.000003
    30  C    0.000000   0.000000   0.000000   0.000000   0.000000   0.000000
    31  H    0.000000   0.000000   0.000000   0.000000   0.000000   0.000000
    32  H    0.000000   0.000000   0.000000   0.000000   0.000000   0.000000
    33  C    0.000000   0.000000   0.000000   0.000000   0.000000   0.000000
    34  H    0.000000   0.000000   0.000000   0.000000   0.000000   0.000000
    35  H    0.000000   0.000000   0.000000   0.000000   0.000000   0.000000
    36  H    0.000000   0.000000   0.000000   0.000000   0.000000   0.000000
              13         14         15         16         17         18
     1  C    0.000294   0.000298   0.000009   0.000007   0.000007   0.000000
     2  C   -0.006640  -0.006629  -0.000440   0.000318   0.000325   0.000008
     3  H    0.000008   0.000008   0.000000   0.000000   0.000000   0.000000
     4  H   -0.000053   0.000024   0.000000   0.000004  -0.000010   0.000000
     5  H    0.000024  -0.000053   0.000000  -0.000010   0.000004   0.000000
     6  C   -0.022340  -0.022315   0.008161  -0.007045  -0.007023  -0.000458
     7  H    0.007903  -0.002039   0.000004   0.000015  -0.000040   0.000000
     8  H   -0.002030   0.007901   0.000004  -0.000040   0.000015   0.000000
     9  C    0.372271   0.372152  -0.044193  -0.021627  -0.021704   0.008385
    10  H    0.009444  -0.011929   0.000436   0.007735  -0.002020   0.000001
    11  H   -0.011953   0.009443   0.000430  -0.002009   0.007742   0.000001
    12  C   -0.021275  -0.021188   0.366811   0.371729   0.371939  -0.045395
    13  H    0.696012  -0.036329  -0.007211   0.009380  -0.011858   0.000400
    14  H   -0.036329   0.696160  -0.007236  -0.011928   0.009377   0.000393
    15  C   -0.007211  -0.007236   4.743966  -0.021121  -0.021157   0.367577
    16  H    0.009380  -0.011928  -0.021121   0.696107  -0.036194  -0.007219
    17  H   -0.011858   0.009377  -0.021157  -0.036194   0.695706  -0.007214
    18  C    0.000400   0.000393   0.367577  -0.007219  -0.007214   4.743246
    19  H    0.007785  -0.001994   0.371852   0.009370  -0.011918  -0.021457
    20  H   -0.002007   0.007780   0.371702  -0.011891   0.009371  -0.021490
    21  C    0.000003   0.000003  -0.044425   0.000397   0.000393   0.367463
    22  H    0.000014  -0.000040  -0.020884   0.007787  -0.001992   0.372083
    23  H   -0.000040   0.000014  -0.020977  -0.002003   0.007779   0.371846
    24  C    0.000000   0.000000   0.008198   0.000004   0.000002  -0.043819
    25  H   -0.000012   0.000005  -0.007021   0.000014  -0.000040  -0.020832
    26  H    0.000005  -0.000012  -0.007195  -0.000039   0.000014  -0.021318
    27  C    0.000000   0.000000  -0.000437   0.000000   0.000000   0.008235
    28  H    0.000000   0.000000   0.000465  -0.000012   0.000005  -0.007372
    29  H    0.000000   0.000000   0.000409   0.000005  -0.000012  -0.007332
    30  C    0.000000   0.000000   0.000008   0.000000   0.000000  -0.000456
    31  H    0.000000   0.000000   0.000003   0.000000   0.000000   0.000349
    32  H    0.000000   0.000000  -0.000011   0.000000   0.000000   0.000466
    33  C    0.000000   0.000000   0.000000   0.000000   0.000000   0.000004
    34  H    0.000000   0.000000   0.000000   0.000000   0.000000   0.000000
    35  H    0.000000   0.000000   0.000000   0.000000   0.000000   0.000001
    36  H    0.000000   0.000000   0.000000   0.000000   0.000000   0.000004
              19         20         21         22         23         24
     1  C    0.000000   0.000000   0.000000   0.000000   0.000000   0.000000
     2  C    0.000003   0.000003   0.000000   0.000000   0.000000   0.000000
     3  H    0.000000   0.000000   0.000000   0.000000   0.000000   0.000000
     4  H    0.000000   0.000000   0.000000   0.000000   0.000000   0.000000
     5  H    0.000000   0.000000   0.000000   0.000000   0.000000   0.000000
     6  C    0.000376   0.000385   0.000008   0.000003   0.000004   0.000000
     7  H   -0.000013   0.000005   0.000000   0.000000   0.000000   0.000000
     8  H    0.000005  -0.000012   0.000000   0.000000   0.000000   0.000000
     9  C   -0.007110  -0.007104  -0.000460   0.000389   0.000390   0.000008
    10  H    0.000014  -0.000040   0.000000  -0.000012   0.000005   0.000000
    11  H   -0.000040   0.000014   0.000000   0.000005  -0.000012   0.000000
    12  C   -0.021313  -0.021260   0.008403  -0.007178  -0.007092  -0.000448
    13  H    0.007785  -0.002007   0.000003   0.000014  -0.000040   0.000000
    14  H   -0.001994   0.007780   0.000003  -0.000040   0.000014   0.000000
    15  C    0.371852   0.371702  -0.044425  -0.020884  -0.020977   0.008198
    16  H    0.009370  -0.011891   0.000397   0.007787  -0.002003   0.000004
    17  H   -0.011918   0.009371   0.000393  -0.001992   0.007779   0.000002
    18  C   -0.021457  -0.021490   0.367463   0.372083   0.371846  -0.043819
    19  H    0.695714  -0.036167  -0.007220   0.009358  -0.011850   0.000404
    20  H   -0.036167   0.696120  -0.007160  -0.011917   0.009353   0.000370
    21  C   -0.007220  -0.007160   4.746036  -0.021950  -0.021567   0.366151
    22  H    0.009358  -0.011917  -0.021950   0.695080  -0.036038  -0.007012
    23  H   -0.011850   0.009353  -0.021567  -0.036038   0.694387  -0.006861
    24  C    0.000404   0.000370   0.366151  -0.007012  -0.006861   4.777531
    25  H    0.007768  -0.002000   0.372598   0.009326  -0.011907  -0.022443
    26  H   -0.001990   0.007748   0.371135  -0.011813   0.009355  -0.022230
    27  C    0.000002   0.000004  -0.044044   0.000296   0.000347   0.387095
    28  H    0.000012  -0.000041  -0.017261   0.007693  -0.001987   0.370768
    29  H   -0.000036   0.000010  -0.022447  -0.001995   0.007370   0.373197
    30  C    0.000000   0.000000   0.008426   0.000009  -0.000002  -0.062609
    31  H   -0.000012   0.000005  -0.005384   0.000016  -0.000030  -0.025835
    32  H    0.000005  -0.000012  -0.011061  -0.000047   0.000005  -0.018595
    33  C    0.000000   0.000000  -0.000213   0.000001  -0.000006  -0.002235
    34  H    0.000000   0.000000   0.000019   0.000000   0.000000  -0.000282
    35  H    0.000000   0.000000  -0.000077   0.000000   0.000001   0.000101
    36  H    0.000000   0.000000   0.000059  -0.000008   0.000003  -0.004631
              25         26         27         28         29         30
     1  C    0.000000   0.000000   0.000000   0.000000   0.000000   0.000000
     2  C    0.000000   0.000000   0.000000   0.000000   0.000000   0.000000
     3  H    0.000000   0.000000   0.000000   0.000000   0.000000   0.000000
     4  H    0.000000   0.000000   0.000000   0.000000   0.000000   0.000000
     5  H    0.000000   0.000000   0.000000   0.000000   0.000000   0.000000
     6  C    0.000000   0.000000   0.000000   0.000000   0.000000   0.000000
     7  H    0.000000   0.000000   0.000000   0.000000   0.000000   0.000000
     8  H    0.000000   0.000000   0.000000   0.000000   0.000000   0.000000
     9  C    0.000003   0.000002   0.000000   0.000000   0.000000   0.000000
    10  H    0.000000   0.000000   0.000000   0.000000   0.000000   0.000000
    11  H    0.000000   0.000000   0.000000   0.000000   0.000000   0.000000
    12  C    0.000381   0.000389   0.000007   0.000000  -0.000003   0.000000
    13  H   -0.000012   0.000005   0.000000   0.000000   0.000000   0.000000
    14  H    0.000005  -0.000012   0.000000   0.000000   0.000000   0.000000
    15  C   -0.007021  -0.007195  -0.000437   0.000465   0.000409   0.000008
    16  H    0.000014  -0.000039   0.000000  -0.000012   0.000005   0.000000
    17  H   -0.000040   0.000014   0.000000   0.000005  -0.000012   0.000000
    18  C   -0.020832  -0.021318   0.008235  -0.007372  -0.007332  -0.000456
    19  H    0.007768  -0.001990   0.000002   0.000012  -0.000036   0.000000
    20  H   -0.002000   0.007748   0.000004  -0.000041   0.000010   0.000000
    21  C    0.372598   0.371135  -0.044044  -0.017261  -0.022447   0.008426
    22  H    0.009326  -0.011813   0.000296   0.007693  -0.001995   0.000009
    23  H   -0.011907   0.009355   0.000347  -0.001987   0.007370  -0.000002
    24  C   -0.022443  -0.022230   0.387095   0.370768   0.373197  -0.062609
    25  H    0.693840  -0.036170  -0.007010   0.009270  -0.011770   0.000195
    26  H   -0.036170   0.695924  -0.006146  -0.012016   0.009355   0.000607
    27  C   -0.007010  -0.006146   4.722480  -0.025293  -0.033254   0.362873
    28  H    0.009270  -0.012016  -0.025293   0.691445  -0.036635  -0.006537
    29  H   -0.011770   0.009355  -0.033254  -0.036635   0.688053   0.006593
    30  C    0.000195   0.000607   0.362873  -0.006537   0.006593   4.743643
    31  H    0.007525  -0.002075   0.377718   0.009265  -0.011347  -0.024430
    32  H   -0.001868   0.008363   0.354931  -0.011465   0.010090  -0.010850
    33  C    0.000054  -0.000024  -0.048441   0.000025   0.002135   0.702898
    34  H    0.000001  -0.000001   0.010755   0.000045  -0.000207  -0.012759
    35  H   -0.000024   0.000008  -0.025576   0.000019   0.000389  -0.017944
    36  H    0.000011  -0.000018  -0.057418   0.005717  -0.001119   0.397510
              31         32         33         34         35         36
     1  C    0.000000   0.000000   0.000000   0.000000   0.000000   0.000000
     2  C    0.000000   0.000000   0.000000   0.000000   0.000000   0.000000
     3  H    0.000000   0.000000   0.000000   0.000000   0.000000   0.000000
     4  H    0.000000   0.000000   0.000000   0.000000   0.000000   0.000000
     5  H    0.000000   0.000000   0.000000   0.000000   0.000000   0.000000
     6  C    0.000000   0.000000   0.000000   0.000000   0.000000   0.000000
     7  H    0.000000   0.000000   0.000000   0.000000   0.000000   0.000000
     8  H    0.000000   0.000000   0.000000   0.000000   0.000000   0.000000
     9  C    0.000000   0.000000   0.000000   0.000000   0.000000   0.000000
    10  H    0.000000   0.000000   0.000000   0.000000   0.000000   0.000000
    11  H    0.000000   0.000000   0.000000   0.000000   0.000000   0.000000
    12  C    0.000000   0.000000   0.000000   0.000000   0.000000   0.000000
    13  H    0.000000   0.000000   0.000000   0.000000   0.000000   0.000000
    14  H    0.000000   0.000000   0.000000   0.000000   0.000000   0.000000
    15  C    0.000003  -0.000011   0.000000   0.000000   0.000000   0.000000
    16  H    0.000000   0.000000   0.000000   0.000000   0.000000   0.000000
    17  H    0.000000   0.000000   0.000000   0.000000   0.000000   0.000000
    18  C    0.000349   0.000466   0.000004   0.000000   0.000001   0.000004
    19  H   -0.000012   0.000005   0.000000   0.000000   0.000000   0.000000
    20  H    0.000005  -0.000012   0.000000   0.000000   0.000000   0.000000
    21  C   -0.005384  -0.011061  -0.000213   0.000019  -0.000077   0.000059
    22  H    0.000016  -0.000047   0.000001   0.000000   0.000000  -0.000008
    23  H   -0.000030   0.000005  -0.000006   0.000000   0.000001   0.000003
    24  C   -0.025835  -0.018595  -0.002235  -0.000282   0.000101  -0.004631
    25  H    0.007525  -0.001868   0.000054   0.000001  -0.000024   0.000011
    26  H   -0.002075   0.008363  -0.000024  -0.000001   0.000008  -0.000018
    27  C    0.377718   0.354931  -0.048441   0.010755  -0.025576  -0.057418
    28  H    0.009265  -0.011465   0.000025   0.000045   0.000019   0.005717
    29  H   -0.011347   0.010090   0.002135  -0.000207   0.000389  -0.001119
    30  C   -0.024430  -0.010850   0.702898  -0.012759  -0.017944   0.397510
    31  H    0.684680  -0.033838  -0.013020   0.000060   0.008490   0.008290
    32  H   -0.033838   0.682738   0.002407  -0.000535   0.000520  -0.006026
    33  C   -0.013020   0.002407   4.706604   0.378845   0.387365  -0.036879
    34  H    0.000060  -0.000535   0.378845   0.651649  -0.051052  -0.016832
    35  H    0.008490   0.000520   0.387365  -0.051052   0.654808   0.009767
    36  H    0.008290  -0.006026  -0.036879  -0.016832   0.009767   0.675409
 Mulliken charges:
               1
     1  C   -0.053476
     2  C   -0.078594
     3  H    0.034983
     4  H    0.032828
     5  H    0.032767
     6  C   -0.057597
     7  H    0.026817
     8  H    0.026789
     9  C   -0.036644
    10  H    0.019302
    11  H    0.019400
    12  C   -0.037097
    13  H    0.018206
    14  H    0.018133
    15  C   -0.037729
    16  H    0.018263
    17  H    0.018500
    18  C   -0.036100
    19  H    0.018452
    20  H    0.018233
    21  C   -0.037827
    22  H    0.018825
    23  H    0.019514
    24  C   -0.066825
    25  H    0.020105
    26  H    0.018141
    27  C    0.022875
    28  H    0.023891
    29  H    0.028550
    30  C   -0.087175
    31  H    0.019570
    32  H    0.034782
    33  C   -0.079522
    34  H    0.040294
    35  H    0.033204
    36  H    0.026162
 Sum of Mulliken charges =   0.00000
 Mulliken charges with hydrogens summed into heavy atoms:
               1
     1  C    0.047102
     2  C   -0.024988
     6  C   -0.018896
     9  C   -0.000305
    12  C   -0.000334
    15  C   -0.001043
    18  C    0.002238
    21  C    0.000420
    24  C   -0.014384
    27  C    0.077227
    30  C   -0.061013
    33  C   -0.006023
 Electronic spatial extent (au):  <R**2>=           6920.6168
 Charge=              0.0000 electrons
 Dipole moment (field-independent basis, Debye):
    X=             -0.4524    Y=              0.1167    Z=             -0.1651  Tot=              0.4956
 Quadrupole moment (field-independent basis, Debye-Ang):
   XX=            -85.4935   YY=            -81.2536   ZZ=            -78.0577
   XY=             -0.6798   XZ=             -0.5058   YZ=              0.6495
 Traceless Quadrupole moment (field-independent basis, Debye-Ang):
   XX=             -3.8919   YY=              0.3480   ZZ=              3.5439
   XY=             -0.6798   XZ=             -0.5058   YZ=              0.6495
 Octapole moment (field-independent basis, Debye-Ang**2):
  XXX=            -24.1735  YYY=              0.8384  ZZZ=             -0.3296  XYY=             -2.8141
  XXY=             -4.4397  XXZ=             -0.0571  XZZ=              1.3467  YZZ=              0.5272
  YYZ=             -0.7943  XYZ=              4.8112
 Hexadecapole moment (field-independent basis, Debye-Ang**3):
 XXXX=          -9507.2763 YYYY=           -278.1930 ZZZZ=           -190.5575 XXXY=           -131.0026
 XXXZ=             22.8339 YYYX=              3.7320 YYYZ=             -0.3547 ZZZX=             -0.8213
 ZZZY=              2.6854 XXYY=          -1603.5482 XXZZ=          -1528.9597 YYZZ=            -73.2037
 XXYZ=             27.3451 YYXZ=             -5.0347 ZZXY=              5.4212
 N-N= 6.547636295070D+02 E-N=-2.395846428645D+03  KE= 4.650602835946D+02
   1 Symmetry operations used in ECPInt.
 ECPInt:  NShTT=   10440 NPrTT=   35208 LenC2=    8762 LenP2D=   21883.
 LDataN:  DoStor=T MaxTD1= 5 Len=  102
 Calling FoFJK, ICntrl=      2127 FMM=F ISym2X=0 I1Cent= 0 IOpClX= 0 NMat=1 NMatS=1 NMatT=0.
 ***** Axes restored to original set *****
 -------------------------------------------------------------------
 Center     Atomic                   Forces (Hartrees/Bohr)
 Number     Number              X              Y              Z
 -------------------------------------------------------------------
      1        6           0.005900891    0.000007369    0.008759109
      2        6          -0.015544814   -0.000015282   -0.013127002
      3        1           0.003364122   -0.000000741   -0.004686385
      4        1          -0.002699440    0.003584161   -0.002779038
      5        1          -0.002699985   -0.003592412   -0.002780693
      6        6           0.021468090    0.000036013    0.014429535
      7        1           0.003036400    0.003845440    0.004288268
      8        1           0.003048082   -0.003840414    0.004287543
      9        6          -0.021504539   -0.000059379   -0.014620275
     10        1          -0.003900153   -0.004382466   -0.002727977
     11        1          -0.003905280    0.004368700   -0.002738236
     12        6           0.021535959    0.000100168    0.014610102
     13        1           0.003872858    0.004298634    0.002626579
     14        1           0.003901455   -0.004278409    0.002630505
     15        6          -0.021497448   -0.000122384   -0.014514916
     16        1          -0.003899086   -0.004317409   -0.002620227
     17        1          -0.003912812    0.004278602   -0.002644893
     18        6           0.021083239    0.000231070    0.014695346
     19        1           0.003869724    0.004315651    0.002631289
     20        1           0.003922715   -0.004273504    0.002648588
     21        6          -0.021072839   -0.000533942   -0.013770893
     22        1          -0.003859488   -0.004318233   -0.002628005
     23        1          -0.003896652    0.004231877   -0.002647762
     24        6           0.019711178   -0.000749114    0.010403176
     25        1           0.003842796    0.004317944    0.002641204
     26        1           0.003983380   -0.004263397    0.002697563
     27        6          -0.018469746   -0.001143989   -0.007052383
     28        1          -0.003686876   -0.004028069   -0.002323790
     29        1          -0.003720792    0.003673625   -0.001406282
     30        6           0.007322414    0.014814687    0.010215255
     31        1           0.001702000    0.004338796    0.002685500
     32        1           0.005285024   -0.005224522    0.000280041
     33        6           0.003170599   -0.011613847   -0.008605277
     34        1          -0.005588081    0.000224499    0.002122287
     35        1           0.003487772    0.006213451    0.002179402
     36        1          -0.003650667   -0.006123176   -0.003157257
 -------------------------------------------------------------------
 Cartesian Forces:  Max     0.021535959 RMS     0.008030815
 -----------------------------------------------------------------------------------------------
                       Internal Coordinate Forces (Hartree/Bohr or radian)
  Cent   Atom   N1       Length/X         N2         Alpha/Y        N3         Beta/Z          J
 -----------------------------------------------------------------------------------------------
      1  C 
      2  C        1   0.001487(     1)
      3  H        1   0.004779(     2)      2   0.006683(    36)
      4  H        1   0.005151(     3)      2   0.002067(    37)      3  -0.001093(    70)     0
      5  H        1   0.005159(     4)      2   0.002064(    38)      3   0.001085(    71)     0
      6  C        2  -0.002993(     5)      1   0.010383(    39)      3  -0.000014(    72)     0
      7  H        2   0.006003(     6)      1   0.005087(    40)      3  -0.001129(    73)     0
      8  H        2   0.006005(     7)      1   0.005083(    41)      3   0.001147(    74)     0
      9  C        6  -0.002948(     8)      2   0.011597(    42)      1  -0.000037(    75)     0
     10  H        6   0.006351(     9)      2   0.001109(    43)      1  -0.002175(    76)     0
     11  H        6   0.006349(    10)      2   0.001105(    44)      1   0.002178(    77)     0
     12  C        9  -0.002910(    11)      6   0.011678(    45)      2  -0.000025(    78)     0
     13  H        9   0.006235(    12)      6   0.001220(    46)      2  -0.002100(    79)     0
     14  H        9   0.006239(    13)      6   0.001203(    47)      2   0.002125(    80)     0
     15  C       12  -0.002929(    14)      9   0.011673(    48)      6  -0.000046(    81)     0
     16  H       12   0.006259(    15)      9   0.001270(    49)      6  -0.002103(    82)     0
     17  H       12   0.006252(    16)      9   0.001260(    50)      6   0.002104(    83)     0
     18  C       15  -0.002934(    17)     12   0.011594(    51)      9  -0.000041(    84)     0
     19  H       15   0.006245(    18)     12   0.001240(    52)      9  -0.002104(    85)     0
     20  H       15   0.006255(    19)     12   0.001212(    53)      9   0.002139(    86)     0
     21  C       18  -0.003112(    20)     15   0.011393(    54)     12  -0.000036(    87)     0
     22  H       18   0.006239(    21)     15   0.001210(    55)     12  -0.002122(    88)     0
     23  H       18   0.006211(    22)     15   0.001246(    56)     12   0.002114(    89)     0
     24  C       21  -0.003222(    23)     18   0.010818(    57)     15  -0.000204(    90)     0
     25  H       21   0.006234(    24)     18   0.001290(    58)     15  -0.002086(    91)     0
     26  H       21   0.006297(    25)     18   0.001269(    59)     15   0.002224(    92)     0
     27  C       24  -0.001347(    26)     21   0.010821(    60)     18   0.001221(    93)     0
     28  H       24   0.005820(    27)     21   0.001441(    61)     18  -0.001822(    94)     0
     29  H       24   0.005258(    28)     21   0.002596(    62)     18   0.000624(    95)     0
     30  C       27  -0.003448(    29)     24   0.006843(    63)     21  -0.004839(    96)     0
     31  H       27   0.005213(    30)     24   0.002124(    64)     21   0.001642(    97)     0
     32  H       27   0.006865(    31)     24  -0.004543(    65)     21   0.003577(    98)     0
     33  C       30  -0.006610(    32)     27   0.004104(    66)     24   0.001510(    99)     0
     34  H       33   0.005959(    33)     30   0.000982(    67)     27  -0.000357(   100)     0
     35  H       33   0.007419(    34)     30   0.001418(    68)     27  -0.000167(   101)     0
     36  H       30   0.007618(    35)     27  -0.002603(    69)     24  -0.001974(   102)     0
 -----------------------------------------------------------------------------------------------
 Internal  Forces:  Max     0.011678086 RMS     0.004830161

 GradGradGradGradGradGradGradGradGradGradGradGradGradGradGradGradGradGrad
 Berny optimization.
 Search for a local minimum.
 Step number   1 out of a maximum of  200
 All quantities printed in internal units (Hartrees-Bohrs-Radians)
 Second derivative matrix not updated -- first step.
 ITU=  0
     Eigenvalues ---    0.01014   0.01016   0.01028   0.01028   0.01028
     Eigenvalues ---    0.01029   0.01040   0.01074   0.01312   0.01978
     Eigenvalues ---    0.08427   0.13370   0.15083   0.15094   0.15113
     Eigenvalues ---    0.15114   0.15115   0.15120   0.15131   0.15296
     Eigenvalues ---    0.15820   0.16000   0.17236   0.17288   0.17292
     Eigenvalues ---    0.17292   0.17293   0.17293   0.17305   0.17324
     Eigenvalues ---    0.17542   0.19879   0.20947   0.23861   0.29418
     Eigenvalues ---    0.29426   0.29460   0.29461   0.29462   0.29462
     Eigenvalues ---    0.29463   0.29566   0.30331   0.32194   0.33834
     Eigenvalues ---    0.33966   0.33967   0.34027   0.34033   0.34033
     Eigenvalues ---    0.34036   0.34036   0.34037   0.34037   0.34037
     Eigenvalues ---    0.34037   0.34037   0.34037   0.34037   0.34037
     Eigenvalues ---    0.34064   0.34104   0.34104   0.34276   0.34277
     Eigenvalues ---    0.34299   0.35012   0.35313   0.35332   0.36582
     Eigenvalues ---    0.36627   0.36659   0.36681   0.36682   0.36682
     Eigenvalues ---    0.36686   0.36693   0.37162   0.39241   0.39324
     Eigenvalues ---    0.39326   0.39326   0.39328   0.39329   0.39338
     Eigenvalues ---    0.39352   0.39424   0.39725   0.42862   0.42864
     Eigenvalues ---    0.42864   0.42864   0.42872   0.42883   0.42893
     Eigenvalues ---    0.42924   0.43147   0.48000   0.53119   0.57454
     Eigenvalues --- 1000.000001000.00000
 RFO step:  Lambda=-7.53656294D-03 EMin= 1.01428705D-02
 Linear search not attempted -- first point.
 Variable       Old X    -DE/DX   Delta X   Delta X   Delta X     New X
                                 (Linear)    (Quad)   (Total)
    B1        2.87308   0.00149   0.00000   0.00478   0.00478   2.87787
    B2        2.06829   0.00478   0.00000   0.01363   0.01363   2.08192
    A2        1.92443   0.00668   0.00000   0.03098   0.03098   1.95541
    B3        2.06866   0.00515   0.00000   0.01471   0.01471   2.08337
    A3        1.93731   0.00207   0.00000   0.00021   0.00021   1.93752
    D3        4.19337  -0.00109   0.00000  -0.00964  -0.00964   4.18373
    B4        2.06865   0.00516   0.00000   0.01473   0.01473   2.08337
    A4        1.93737   0.00206   0.00000   0.00014   0.00014   1.93751
    D4        2.08990   0.00109   0.00000   0.00945   0.00945   2.09936
    B5        2.88837  -0.00299   0.00000  -0.00987  -0.00987   2.87850
    A5        1.94593   0.01038   0.00000   0.02924   0.02924   1.97517
    D5        3.14200  -0.00001   0.00000   0.00035   0.00035   3.14235
    B6        2.07156   0.00600   0.00000   0.01722   0.01722   2.08878
    A6        1.90492   0.00509   0.00000   0.01090   0.01090   1.91582
    D6        1.02042  -0.00113   0.00000  -0.00617  -0.00617   1.01426
    B7        2.07156   0.00600   0.00000   0.01723   0.01723   2.08878
    A7        1.90497   0.00508   0.00000   0.01091   0.01091   1.91587
    D7        5.26348   0.00115   0.00000   0.00691   0.00691   5.27040
    B8        2.89047  -0.00295   0.00000  -0.00976  -0.00976   2.88071
    A8        1.94309   0.01160   0.00000   0.04055   0.04055   1.98364
    D8        3.14277  -0.00004   0.00000   0.00010   0.00010   3.14287
    B9        2.07275   0.00635   0.00000   0.01826   0.01826   2.09100
    A9        1.91232   0.00111   0.00000  -0.00618  -0.00618   1.90615
    D9        1.02439  -0.00218   0.00000  -0.01486  -0.01486   1.00953
   B10        2.07275   0.00635   0.00000   0.01825   0.01825   2.09100
   A10        1.91235   0.00110   0.00000  -0.00615  -0.00615   1.90620
   D10        5.26097   0.00218   0.00000   0.01510   0.01510   5.27607
   B11        2.89051  -0.00291   0.00000  -0.00963  -0.00963   2.88088
   A11        1.94306   0.01168   0.00000   0.04063   0.04063   1.98369
   D11        3.14246  -0.00002   0.00000   0.00031   0.00031   3.14277
   B12        2.07269   0.00623   0.00000   0.01792   0.01792   2.09061
   A12        1.91222   0.00122   0.00000  -0.00574  -0.00574   1.90648
   D12        1.02436  -0.00210   0.00000  -0.01441  -0.01441   1.00996
[...]
     5  H    0.008653  -0.009903   0.000441   0.007729  -0.001915  -0.000007
     6  C   -0.024668  -0.024713   0.366748   0.372506   0.372526  -0.039125
     7  H    0.692860  -0.036044  -0.007330   0.009829  -0.012024   0.000331
     8  H   -0.036044   0.692952  -0.007318  -0.012002   0.009828   0.000334
     9  C   -0.007330  -0.007318   4.747579  -0.021972  -0.022008   0.368677
    10  H    0.009829  -0.012002  -0.021972   0.700063  -0.038214  -0.007501
    11  H   -0.012024   0.009828  -0.022008  -0.038214   0.699941  -0.007487
    12  C    0.000331   0.000334   0.368677  -0.007501  -0.007487   4.743242
    13  H    0.008378  -0.002091   0.370148   0.009714  -0.012029  -0.022385
    14  H   -0.002085   0.008374   0.370073  -0.012064   0.009715  -0.022381
    15  C    0.000004   0.000004  -0.040775   0.000401   0.000405   0.372373
    16  H    0.000020  -0.000042  -0.022833   0.008134  -0.002031   0.369815
    17  H   -0.000042   0.000020  -0.022836  -0.002024   0.008134   0.369973
    18  C    0.000000   0.000000   0.007920   0.000001   0.000001  -0.042107
    19  H   -0.000011   0.000004  -0.007124   0.000018  -0.000041  -0.022581
    20  H    0.000004  -0.000011  -0.007156  -0.000041   0.000018  -0.022515
    21  C    0.000000   0.000000  -0.000406   0.000000   0.000000   0.007959
    22  H    0.000000   0.000000   0.000360  -0.000011   0.000005  -0.007195
    23  H    0.000000   0.000000   0.000351   0.000005  -0.000011  -0.007139
    24  C    0.000000   0.000000   0.000006   0.000000   0.000000  -0.000395
    25  H    0.000000   0.000000   0.000003   0.000000   0.000000   0.000350
    26  H    0.000000   0.000000   0.000003   0.000000   0.000000   0.000352
    27  C    0.000000   0.000000   0.000000   0.000000   0.000000   0.000006
    28  H    0.000000   0.000000   0.000000   0.000000   0.000000   0.000001
    29  H    0.000000   0.000000   0.000000   0.000000   0.000000  -0.000002
    30  C    0.000000   0.000000   0.000000   0.000000   0.000000   0.000000
    31  H    0.000000   0.000000   0.000000   0.000000   0.000000   0.000000
    32  H    0.000000   0.000000   0.000000   0.000000   0.000000   0.000000
    33  C    0.000000   0.000000   0.000000   0.000000   0.000000   0.000000
    34  H    0.000000   0.000000   0.000000   0.000000   0.000000   0.000000
    35  H    0.000000   0.000000   0.000000   0.000000   0.000000   0.000000
    36  H    0.000000   0.000000   0.000000   0.000000   0.000000   0.000000
              13         14         15         16         17         18
     1  C    0.000274   0.000269   0.000007   0.000007   0.000007   0.000000
     2  C   -0.006699  -0.006707  -0.000376   0.000295   0.000292   0.000006
     3  H    0.000008   0.000008   0.000000   0.000000   0.000000   0.000000
     4  H   -0.000051   0.000025   0.000000   0.000003  -0.000009   0.000000
     5  H    0.000025  -0.000050   0.000000  -0.000009   0.000003   0.000000
     6  C   -0.023537  -0.023507   0.007662  -0.007076  -0.007078  -0.000401
     7  H    0.008378  -0.002085   0.000004   0.000020  -0.000042   0.000000
     8  H   -0.002091   0.008374   0.000004  -0.000042   0.000020   0.000000
     9  C    0.370148   0.370073  -0.040775  -0.022833  -0.022836   0.007920
    10  H    0.009714  -0.012064   0.000401   0.008134  -0.002024   0.000001
    11  H   -0.012029   0.009715   0.000405  -0.002031   0.008134   0.000001
    12  C   -0.022385  -0.022381   0.372373   0.369815   0.369973  -0.042107
    13  H    0.699448  -0.037464  -0.007286   0.009663  -0.012034   0.000362
    14  H   -0.037464   0.699607  -0.007284  -0.012017   0.009660   0.000366
    15  C   -0.007286  -0.007284   4.739336  -0.022344  -0.022410   0.372885
    16  H    0.009663  -0.012017  -0.022344   0.699280  -0.037351  -0.007274
    17  H   -0.012034   0.009660  -0.022410  -0.037351   0.698905  -0.007231
    18  C    0.000362   0.000366   0.372885  -0.007274  -0.007231   4.739542
    19  H    0.008185  -0.002029   0.369961   0.009652  -0.012020  -0.022675
    20  H   -0.002023   0.008187   0.369855  -0.012059   0.009654  -0.022751
    21  C    0.000003   0.000003  -0.041009   0.000358   0.000366   0.371291
    22  H    0.000019  -0.000041  -0.022151   0.008181  -0.002024   0.369922
    23  H   -0.000040   0.000019  -0.022156  -0.002016   0.008169   0.369955
    24  C    0.000000   0.000000   0.007718   0.000004   0.000003  -0.040133
    25  H   -0.000011   0.000005  -0.007059   0.000019  -0.000041  -0.022280
    26  H    0.000005  -0.000011  -0.007231  -0.000040   0.000019  -0.022389
    27  C    0.000000   0.000000  -0.000379   0.000000   0.000000   0.007715
    28  H    0.000000   0.000000   0.000418  -0.000011   0.000005  -0.007594
    29  H    0.000000   0.000000   0.000377   0.000005  -0.000011  -0.007304
    30  C    0.000000   0.000000   0.000006   0.000000   0.000000  -0.000398
    31  H    0.000000   0.000000   0.000005   0.000000   0.000000   0.000253
    32  H    0.000000   0.000000  -0.000010   0.000000   0.000000   0.000482
    33  C    0.000000   0.000000   0.000000   0.000000   0.000000   0.000005
    34  H    0.000000   0.000000   0.000000   0.000000   0.000000   0.000000
    35  H    0.000000   0.000000   0.000000   0.000000   0.000000   0.000001
    36  H    0.000000   0.000000   0.000000   0.000000   0.000000   0.000000
              19         20         21         22         23         24
     1  C    0.000000   0.000000   0.000000   0.000000   0.000000   0.000000
     2  C    0.000003   0.000003   0.000000   0.000000   0.000000   0.000000
     3  H    0.000000   0.000000   0.000000   0.000000   0.000000   0.000000
     4  H    0.000000   0.000000   0.000000   0.000000   0.000000   0.000000
     5  H    0.000000   0.000000   0.000000   0.000000   0.000000   0.000000
     6  C    0.000350   0.000349   0.000006   0.000003   0.000003   0.000000
     7  H   -0.000011   0.000004   0.000000   0.000000   0.000000   0.000000
     8  H    0.000004  -0.000011   0.000000   0.000000   0.000000   0.000000
     9  C   -0.007124  -0.007156  -0.000406   0.000360   0.000351   0.000006
    10  H    0.000018  -0.000041   0.000000  -0.000011   0.000005   0.000000
    11  H   -0.000041   0.000018   0.000000   0.000005  -0.000011   0.000000
    12  C   -0.022581  -0.022515   0.007959  -0.007195  -0.007139  -0.000395
    13  H    0.008185  -0.002023   0.000003   0.000019  -0.000040   0.000000
    14  H   -0.002029   0.008187   0.000003  -0.000041   0.000019   0.000000
    15  C    0.369961   0.369855  -0.041009  -0.022151  -0.022156   0.007718
    16  H    0.009652  -0.012059   0.000358   0.008181  -0.002016   0.000004
    17  H   -0.012020   0.009654   0.000366  -0.002024   0.008169   0.000003
    18  C   -0.022675  -0.022751   0.371291   0.369922   0.369955  -0.040133
    19  H    0.698974  -0.037346  -0.007264   0.009639  -0.012028   0.000368
    20  H   -0.037346   0.699374  -0.007197  -0.012010   0.009628   0.000348
    21  C   -0.007264  -0.007197   4.744341  -0.022897  -0.022613   0.367770
    22  H    0.009639  -0.012010  -0.022897   0.698541  -0.037207  -0.007120
    23  H   -0.012028   0.009628  -0.022613  -0.037207   0.697527  -0.006942
    24  C    0.000368   0.000348   0.367770  -0.007120  -0.006942   4.782083
    25  H    0.008148  -0.002032   0.370701   0.009619  -0.012030  -0.023702
    26  H   -0.002008   0.008157   0.369228  -0.011968   0.009623  -0.022923
    27  C    0.000002   0.000003  -0.040187   0.000279   0.000309   0.386362
    28  H    0.000017  -0.000043  -0.018424   0.008075  -0.001995   0.369473
    29  H   -0.000036   0.000015  -0.023194  -0.002003   0.007710   0.371576
    30  C    0.000000   0.000000   0.007865   0.000010  -0.000002  -0.057992
    31  H   -0.000011   0.000004  -0.005212   0.000020  -0.000029  -0.026093
    32  H    0.000005  -0.000011  -0.011254  -0.000052   0.000012  -0.020969
    33  C    0.000000   0.000000  -0.000260   0.000001  -0.000004  -0.000650
    34  H    0.000000   0.000000   0.000017   0.000000   0.000000  -0.000288
    35  H    0.000000   0.000000  -0.000057   0.000000   0.000000   0.000176
    36  H    0.000000   0.000000   0.000141  -0.000007   0.000003  -0.005364
              25         26         27         28         29         30
     1  C    0.000000   0.000000   0.000000   0.000000   0.000000   0.000000
     2  C    0.000000   0.000000   0.000000   0.000000   0.000000   0.000000
     3  H    0.000000   0.000000   0.000000   0.000000   0.000000   0.000000
     4  H    0.000000   0.000000   0.000000   0.000000   0.000000   0.000000
     5  H    0.000000   0.000000   0.000000   0.000000   0.000000   0.000000
     6  C    0.000000   0.000000   0.000000   0.000000   0.000000   0.000000
     7  H    0.000000   0.000000   0.000000   0.000000   0.000000   0.000000
     8  H    0.000000   0.000000   0.000000   0.000000   0.000000   0.000000
     9  C    0.000003   0.000003   0.000000   0.000000   0.000000   0.000000
    10  H    0.000000   0.000000   0.000000   0.000000   0.000000   0.000000
    11  H    0.000000   0.000000   0.000000   0.000000   0.000000   0.000000
    12  C    0.000350   0.000352   0.000006   0.000001  -0.000002   0.000000
    13  H   -0.000011   0.000005   0.000000   0.000000   0.000000   0.000000
    14  H    0.000005  -0.000011   0.000000   0.000000   0.000000   0.000000
    15  C   -0.007059  -0.007231  -0.000379   0.000418   0.000377   0.000006
    16  H    0.000019  -0.000040   0.000000  -0.000011   0.000005   0.000000
    17  H   -0.000041   0.000019   0.000000   0.000005  -0.000011   0.000000
    18  C   -0.022280  -0.022389   0.007715  -0.007594  -0.007304  -0.000398
    19  H    0.008148  -0.002008   0.000002   0.000017  -0.000036   0.000000
    20  H   -0.002032   0.008157   0.000003  -0.000043   0.000015   0.000000
    21  C    0.370701   0.369228  -0.040187  -0.018424  -0.023194   0.007865
    22  H    0.009619  -0.011968   0.000279   0.008075  -0.002003   0.000010
    23  H   -0.012030   0.009623   0.000309  -0.001995   0.007710  -0.000002
    24  C   -0.023702  -0.022923   0.386362   0.369473   0.371576  -0.057992
    25  H    0.697425  -0.037348  -0.006713   0.009542  -0.011809   0.000217
    26  H   -0.037348   0.699004  -0.006763  -0.012157   0.009557   0.000573
    27  C   -0.006713  -0.006763   4.731237  -0.026342  -0.033959   0.366697
    28  H    0.009542  -0.012157  -0.026342   0.693706  -0.037389  -0.007116
    29  H   -0.011809   0.009557  -0.033959  -0.037389   0.690972   0.006138
    30  C    0.000217   0.000573   0.366697  -0.007116   0.006138   4.733202
    31  H    0.007619  -0.001975   0.374226   0.009295  -0.011697  -0.024872
    32  H   -0.001970   0.009079   0.353803  -0.011199   0.010352  -0.010854
    33  C    0.000046  -0.000021  -0.050411   0.000064   0.001910   0.705790
    34  H    0.000001  -0.000001   0.010802   0.000041  -0.000169  -0.011207
    35  H   -0.000018   0.000007  -0.025207   0.000021   0.000275  -0.018155
    36  H    0.000016  -0.000022  -0.059159   0.006539  -0.001247   0.395062
              31         32         33         34         35         36
     1  C    0.000000   0.000000   0.000000   0.000000   0.000000   0.000000
     2  C    0.000000   0.000000   0.000000   0.000000   0.000000   0.000000
     3  H    0.000000   0.000000   0.000000   0.000000   0.000000   0.000000
     4  H    0.000000   0.000000   0.000000   0.000000   0.000000   0.000000
     5  H    0.000000   0.000000   0.000000   0.000000   0.000000   0.000000
     6  C    0.000000   0.000000   0.000000   0.000000   0.000000   0.000000
     7  H    0.000000   0.000000   0.000000   0.000000   0.000000   0.000000
     8  H    0.000000   0.000000   0.000000   0.000000   0.000000   0.000000
     9  C    0.000000   0.000000   0.000000   0.000000   0.000000   0.000000
    10  H    0.000000   0.000000   0.000000   0.000000   0.000000   0.000000
    11  H    0.000000   0.000000   0.000000   0.000000   0.000000   0.000000
    12  C    0.000000   0.000000   0.000000   0.000000   0.000000   0.000000
    13  H    0.000000   0.000000   0.000000   0.000000   0.000000   0.000000
    14  H    0.000000   0.000000   0.000000   0.000000   0.000000   0.000000
    15  C    0.000005  -0.000010   0.000000   0.000000   0.000000   0.000000
    16  H    0.000000   0.000000   0.000000   0.000000   0.000000   0.000000
    17  H    0.000000   0.000000   0.000000   0.000000   0.000000   0.000000
    18  C    0.000253   0.000482   0.000005   0.000000   0.000001   0.000000
    19  H   -0.000011   0.000005   0.000000   0.000000   0.000000   0.000000
    20  H    0.000004  -0.000011   0.000000   0.000000   0.000000   0.000000
    21  C   -0.005212  -0.011254  -0.000260   0.000017  -0.000057   0.000141
    22  H    0.000020  -0.000052   0.000001   0.000000   0.000000  -0.000007
    23  H   -0.000029   0.000012  -0.000004   0.000000   0.000000   0.000003
    24  C   -0.026093  -0.020969  -0.000650  -0.000288   0.000176  -0.005364
    25  H    0.007619  -0.001970   0.000046   0.000001  -0.000018   0.000016
    26  H   -0.001975   0.009079  -0.000021  -0.000001   0.000007  -0.000022
    27  C    0.374226   0.353803  -0.050411   0.010802  -0.025207  -0.059159
    28  H    0.009295  -0.011199   0.000064   0.000041   0.000021   0.006539
    29  H   -0.011697   0.010352   0.001910  -0.000169   0.000275  -0.001247
    30  C   -0.024872  -0.010854   0.705790  -0.011207  -0.018155   0.395062
    31  H    0.686076  -0.033505  -0.012912  -0.000013   0.008986   0.008678
    32  H   -0.033505   0.682067   0.001643  -0.000499   0.000454  -0.005565
    33  C   -0.012912   0.001643   4.716646   0.376257   0.385429  -0.036956
    34  H   -0.000013  -0.000499   0.376257   0.648724  -0.050299  -0.016906
    35  H    0.008986   0.000454   0.385429  -0.050299   0.651874   0.009587
    36  H    0.008678  -0.005565  -0.036956  -0.016906   0.009587   0.676905
 Mulliken charges:
               1
     1  C   -0.062160
     2  C   -0.077757
     3  H    0.039258
     4  H    0.035104
     5  H    0.035091
     6  C   -0.062589
     7  H    0.028179
     8  H    0.028124
     9  C   -0.039911
    10  H    0.020357
    11  H    0.020434
    12  C   -0.039879
    13  H    0.019418
    14  H    0.019329
    15  C   -0.040949
    16  H    0.019664
    17  H    0.019899
    18  C   -0.038171
    19  H    0.019847
    20  H    0.019594
    21  C   -0.040077
    22  H    0.020011
    23  H    0.020898
    24  C   -0.073319
    25  H    0.021302
    26  H    0.019250
    27  C    0.017678
    28  H    0.025075
    29  H    0.029933
    30  C   -0.084965
    31  H    0.021156
    32  H    0.037990
    33  C   -0.086578
    34  H    0.043541
    35  H    0.036927
    36  H    0.028296
 Sum of Mulliken charges =   0.00000
 Mulliken charges with hydrogens summed into heavy atoms:
               1
     1  C    0.047292
     2  C   -0.021454
     6  C   -0.021799
     9  C   -0.001164
    12  C   -0.000316
    15  C   -0.001508
    18  C    0.002738
    21  C    0.000474
    24  C   -0.018311
    27  C    0.076824
    30  C   -0.056669
    33  C   -0.006109
 Electronic spatial extent (au):  <R**2>=           7006.9782
 Charge=              0.0000 electrons
 Dipole moment (field-independent basis, Debye):
    X=             -0.4414    Y=              0.0892    Z=             -0.1372  Tot=              0.4708
 Quadrupole moment (field-independent basis, Debye-Ang):
   XX=            -84.3378   YY=            -81.3338   ZZ=            -78.7876
   XY=             -0.5977   XZ=             -0.2574   YZ=              0.8004
 Traceless Quadrupole moment (field-independent basis, Debye-Ang):
   XX=             -2.8514   YY=              0.1526   ZZ=              2.6988
   XY=             -0.5977   XZ=             -0.2574   YZ=              0.8004
 Octapole moment (field-independent basis, Debye-Ang**2):
  XXX=            -25.5919  YYY=              0.6275  ZZZ=             -0.2488  XYY=             -2.3132
  XXY=             -5.6099  XXZ=              2.2664  XZZ=              1.0917  YZZ=              0.5498
  YYZ=             -0.7812  XYZ=              5.3043
 Hexadecapole moment (field-independent basis, Debye-Ang**3):
 XXXX=          -9538.5800 YYYY=           -276.0424 ZZZZ=           -189.4028 XXXY=           -119.4478
 XXXZ=             40.5322 YYYX=              2.6743 YYYZ=              0.4325 ZZZX=             -0.3706
 ZZZY=              2.4523 XXYY=          -1624.4921 XXZZ=          -1563.6534 YYZZ=            -72.4183
 XXYZ=             32.3134 YYXZ=             -4.7899 ZZXY=              6.0169
 N-N= 6.528847942567D+02 E-N=-2.391847900844D+03  KE= 4.648805596448D+02
 1\1\GINC-NODE0139\POpt\RM06\def2SVP\C12H24\JGOODPAS\17-Oct-2017\1\\# O
 pt=(Z-mat,maxcycle=200) m06/def2svp Integral=SuperFineGrid\\C12H24\\0,
 1\C\C,1,B1\H,1,B2,2,A2\H,1,B3,2,A3,3,D3,0\H,1,B4,2,A4,3,D4,0\C,2,B5,1,
 A5,3,D5,0\H,2,B6,1,A6,3,D6,0\H,2,B7,1,A7,3,D7,0\C,6,B8,2,A8,1,D8,0\H,6
 ,B9,2,A9,1,D9,0\H,6,B10,2,A10,1,D10,0\C,9,B11,6,A11,2,D11,0\H,9,B12,6,
 A12,2,D12,0\H,9,B13,6,A13,2,D13,0\C,12,B14,9,A14,6,D14,0\H,12,B15,9,A1
 5,6,D15,0\H,12,B16,9,A16,6,D16,0\C,15,B17,12,A17,9,D17,0\H,15,B18,12,A
 18,9,D18,0\H,15,B19,12,A19,9,D19,0\C,18,B20,15,A20,12,D20,0\H,18,B21,1
 5,A21,12,D21,0\H,18,B22,15,A22,12,D22,0\C,21,B23,18,A23,15,D23,0\H,21,
 B24,18,A24,15,D24,0\H,21,B25,18,A25,15,D25,0\C,24,B26,21,A26,18,D26,0\
 H,24,B27,21,A27,18,D27,0\H,24,B28,21,A28,18,D28,0\C,27,B29,24,A29,21,D
 29,0\H,27,B30,24,A30,21,D30,0\H,27,B31,24,A31,21,D31,0\C,30,B32,27,A32
 ,24,D32,0\H,33,B33,30,A33,27,D33,0\H,33,B34,30,A34,27,D34,0\H,30,B35,2
 7,A35,24,D35,0\\B1=1.51591593\B2=1.10117853\A2=112.26585081\B3=1.10338
 406\A3=111.18876893\D3=239.57679016\B4=1.10337882\A4=111.19471374\D4=1
 20.4367575\B5=1.51876221\A5=113.11503845\D5=179.9435162\B6=1.10690696\
 A6=110.00065042\D6=57.69496584\B7=1.1069153\A7=109.99962804\D7=302.196
 73625\B8=1.51752219\A8=113.77111273\D8=179.9639726\B9=1.10862663\A9=10
 9.37161913\D9=57.30087711\B10=1.10862896\A10=109.36627793\D10=302.6214
 0474\B11=1.51768727\A11=113.75307615\D11=179.93798823\B12=1.10845524\A
 12=109.39310698\D12=57.31151318\B13=1.10846544\A13=109.39211387\D13=30
 2.5680254\B14=1.51767028\A14=113.73713179\D14=179.96361016\B15=1.10841
 692\A15=109.39810719\D15=57.33332464\B16=1.1084094\A16=109.3954086\D16
 =302.5877375\B17=1.51769704\A17=113.72044359\D17=179.9404169\B18=1.108
 40431\A18=109.39537992\D18=57.3219452\B19=1.10842392\A19=109.39552167\
 D19=302.5737693\B20=1.51761871\A20=113.70972145\D20=179.98215665\B21=1
 .10839432\A21=109.39769397\D21=57.3541988\B22=1.10829002\A22=109.40362
 35\D22=302.59016336\B23=1.51742694\A23=113.6429164\D23=179.98565632\B2
 4=1.10834242\A24=109.40681838\D24=57.40292194\B25=1.10845679\A25=109.4
 3688365\D25=302.60131556\B26=1.52360704\A26=113.38947194\D26=180.29202
 525\B27=1.10813218\A27=109.47635229\D27=57.81976784\B28=1.10726194\A28
 =109.73727167\D28=302.69571546\B29=1.4929126\A29=113.04895941\D29=181.
 57893067\B30=1.10633328\A30=109.88765373\D30=58.57884281\B31=1.1085159
 1\A31=108.49253764\D31=303.15012322\B32=1.3322318\A32=125.40193746\D32
 =238.94640213\B33=1.09408698\A33=121.91727671\B34=1.09684126\A34=121.2
 0589562\B35=1.10065399\A35=115.7184136\D35=58.40084298\D33=180.\D34=36
 0.\\Version=ES64L-G09RevD.01\State=1-A\HF=-470.9793502\RMSD=4.010e-09\
 RMSF=1.055e-04\Dipole=0.1239937,-0.060038,-0.1237981\Quadrupole=-0.118
 2636,1.9451628,-1.8268992,0.7010662,0.8822417,0.131512\PG=C01 [X(C12H2
 4)]\\@



 WE LOSE BECAUSE WE WIN

 GAMBLERS,

 RECOLLECTING WHICH,

 TOSS THEIR DICE AGAIN....


                          EMILY DICKINSON  BOLTS OF MELODY NO. 533
 Job cpu time:       0 days  2 hours  8 minutes 50.6 seconds.
 File lengths (MBytes):  RWF=     40 Int=      0 D2E=      0 Chk=     18 Scr=      1
 Normal termination of Gaussian 09 at Tue Oct 17 17:08:33 2017.
7436.50user 294.15system 17:27.05elapsed 738%CPU (0avgtext+0avgdata 7505552maxresident)k
325488inputs+719240outputs (227major+186051638minor)pagefaults 0swaps
