 Entering Gaussian System, Link 0=g09
 Initial command:
 /soft/gaussian/g09.d01_itasca/g09/l1.exe "/scratch/graha682/1920331.node1081.localdomain/Gau-23080.inp" -scrdir="/scratch/graha682/1920331.node1081.localdomain/"
 Entering Link 1 = /soft/gaussian/g09.d01_itasca/g09/l1.exe PID=     23081.
  
 Copyright (c) 1988,1990,1992,1993,1995,1998,2003,2009,2013,
            Gaussian, Inc.  All Rights Reserved.
  
 This is part of the Gaussian(R) 09 program.  It is based on
 the Gaussian(R) 03 system (copyright 2003, Gaussian, Inc.),
 the Gaussian(R) 98 system (copyright 1998, Gaussian, Inc.),
 the Gaussian(R) 94 system (copyright 1995, Gaussian, Inc.),
 the Gaussian 92(TM) system (copyright 1992, Gaussian, Inc.),
 the Gaussian 90(TM) system (copyright 1990, Gaussian, Inc.),
 the Gaussian 88(TM) system (copyright 1988, Gaussian, Inc.),
 the Gaussian 86(TM) system (copyright 1986, Carnegie Mellon
 University), and the Gaussian 82(TM) system (copyright 1983,
 Carnegie Mellon University). Gaussian is a federally registered
 trademark of Gaussian, Inc.
  
 This software contains proprietary and confidential information,
 including trade secrets, belonging to Gaussian, Inc.
  
 This software is provided under written license and may be
 used, copied, transmitted, or stored only in accord with that
 written license.
  
 The following legend is applicable only to US Government
 contracts under FAR:
  
                    RESTRICTED RIGHTS LEGEND
  
 Use, reproduction and disclosure by the US Government is
 subject to restrictions as set forth in subparagraphs (a)
 and (c) of the Commercial Computer Software - Restricted
 Rights clause in FAR 52.227-19.
  
 Gaussian, Inc.
 340 Quinnipiac St., Bldg. 40, Wallingford CT 06492
  
  
 ---------------------------------------------------------------
 Warning -- This program may not be used in any manner that
 competes with the business of Gaussian, Inc. or will provide
 assistance to any competitor of Gaussian, Inc.  The licensee
 of this program is prohibited from giving any competitor of
 Gaussian, Inc. access to this program.  By using this program,
 the user acknowledges that Gaussian, Inc. is engaged in the
 business of creating and licensing software in the field of
 computational chemistry and represents and warrants to the
 licensee that it is not a competitor of Gaussian, Inc. and that
 it will not use this program in any manner prohibited above.
 ---------------------------------------------------------------
  

 Cite this work as:
 Gaussian 09, Revision D.01,
 M. J. Frisch, G. W. Trucks, H. B. Schlegel, G. E. Scuseria, 
 M. A. Robb, J. R. Cheeseman, G. Scalmani, V. Barone, B. Mennucci, 
 G. A. Petersson, H. Nakatsuji, M. Caricato, X. Li, H. P. Hratchian, 
 A. F. Izmaylov, J. Bloino, G. Zheng, J. L. Sonnenberg, M. Hada, 
 M. Ehara, K. Toyota, R. Fukuda, J. Hasegawa, M. Ishida, T. Nakajima, 
 Y. Honda, O. Kitao, H. Nakai, T. Vreven, J. A. Montgomery, Jr., 
 J. E. Peralta, F. Ogliaro, M. Bearpark, J. J. Heyd, E. Brothers, 
 K. N. Kudin, V. N. Staroverov, T. Keith, R. Kobayashi, J. Normand, 
 K. Raghavachari, A. Rendell, J. C. Burant, S. S. Iyengar, J. Tomasi, 
 M. Cossi, N. Rega, J. M. Millam, M. Klene, J. E. Knox, J. B. Cross, 
 V. Bakken, C. Adamo, J. Jaramillo, R. Gomperts, R. E. Stratmann, 
 O. Yazyev, A. J. Austin, R. Cammi, C. Pomelli, J. W. Ochterski, 
 R. L. Martin, K. Morokuma, V. G. Zakrzewski, G. A. Voth, 
 P. Salvador, J. J. Dannenberg, S. Dapprich, A. D. Daniels, 
 O. Farkas, J. B. Foresman, J. V. Ortiz, J. Cioslowski, 
 and D. J. Fox, Gaussian, Inc., Wallingford CT, 2013.
 
 ******************************************
 Gaussian 09:  ES64L-G09RevD.01 24-Apr-2013
                 9-Jul-2017 
 ******************************************
 %LindaWorkers=ic-node0035
 %NProcShared=8
 Will use up to    8 processors via shared memory.
 %Mem=11800mb
 %chk=20170630_augccpVTZ_m06_chloroflourobutane_transition.chk
 SetLPE:  input flags=" -workerwait 250000 -opt "Tsnet.Node.lindarsharg: ssh " "
 SetLPE:    new flags=" -workerwait 250000 -opt "Tsnet.Node.lindarsharg: ssh "  -nodelist 'ic-node0035'"
 Will use up to    1 processors via Linda.
 ----------------------------------------
 # opt=qst2 aug-cc-pvtz geom=connectivity
 ----------------------------------------
 1/5=1,18=20,27=202,38=1,57=2/1,3;
 2/9=110,12=2,17=6,18=5,40=1/2;
 3/5=16,6=1,7=10,11=9,16=1,25=1,30=1,71=1/1,2,3;
 4//1;
 5/5=2,38=5/2;
 6/7=2,8=2,9=2,10=2,28=1/1;
 7//1,2,3,16;
 1/5=1,18=20,27=202/3(2);
 2/9=110/2;
 99//99;
 2/9=110/2;
 3/5=16,6=1,7=10,11=9,16=1,25=1,30=1,71=1/1,2,3;
 4/5=5,16=3,69=1/1;
 5/5=2,38=5/2;
 7//1,2,3,16;
 1/5=1,18=20,27=202/3(-5);
 2/9=110/2;
 6/7=2,8=2,9=2,10=2,19=2,28=1/1;
 99/9=1/99;
 ------------------------------
 1chloro,flouro-butane reactant
 ------------------------------
 Symbolic Z-matrix:
 Charge = -1 Multiplicity = 1
 C                    -0.88751   0.39233   0.66199 
 H                    -1.41501   0.57211   1.59679 
 H                    -0.65378   1.3367    0.13152 
 C                     0.39548  -0.36389   0.85823 
 H                     0.96501   0.21636   1.59572 
 H                     0.2148   -1.35962   1.28761 
 C                     1.22459  -0.44683  -0.40724 
 H                     0.66762  -1.00154  -1.17017 
 H                     1.33741   0.58904  -0.7555 
 C                     2.56588  -1.10502  -0.16193 
 H                     3.1474   -0.53316   0.56712 
 H                     2.45281  -2.12026   0.2361 
 Cl                   -2.08035  -0.59623  -0.33535 
 F                     0.63291   2.52776  -0.2689 
 H                     3.16278  -1.17322  -1.07438 
 
 Add virtual bond connecting atoms F14        and H3         Dist= 3.40D+00.
 -----------------------------------
 1-chloro-1-flouro-butane transition
 -----------------------------------
 Symbolic Z-matrix:
 Charge = -1 Multiplicity = 1
 C                    -0.95097  -1.30197   0.2089 
 H                    -0.85273  -2.01827   1.02918 
 H                    -0.20709  -1.54533  -0.55398 
 C                    -0.76215   0.10684   0.67842 
 H                    -1.5317    0.36149   1.41936 
 H                     0.22068   0.13106   1.16335 
 C                    -0.75124   1.1141   -0.45408 
 H                     0.01762   0.79515  -1.16457 
 H                    -1.71414   1.10739  -0.97663 
 C                    -0.42377   2.50667   0.04149 
 H                    -1.13764   2.83625   0.80373 
 H                     0.57274   2.51369   0.48895 
 Cl                    2.49701  -0.50985  -0.07325 
 F                    -2.22822  -1.47904  -0.33866 
 H                    -0.43408   3.24359  -0.76464 
 
 Add virtual bond connecting atoms Cl13       and H6         Dist= 5.04D+00.
 Iteration  1 RMS(Cart)=  0.08404134 RMS(Int)=  0.80986141
 Iteration  2 RMS(Cart)=  0.06012458 RMS(Int)=  0.78823067
 Iteration  3 RMS(Cart)=  0.04608461 RMS(Int)=  0.77251000
 Iteration  4 RMS(Cart)=  0.04567102 RMS(Int)=  0.76249952
 Iteration  5 RMS(Cart)=  0.03755818 RMS(Int)=  0.75827086
 Iteration  6 RMS(Cart)=  0.03209852 RMS(Int)=  0.75734698
 Iteration  7 RMS(Cart)=  0.00587555 RMS(Int)=  0.75739979
 Iteration  8 RMS(Cart)=  0.00031470 RMS(Int)=  0.75743552
 Iteration  9 RMS(Cart)=  0.00017546 RMS(Int)=  0.75744797
 Iteration 10 RMS(Cart)=  0.00009842 RMS(Int)=  0.75745174
 Iteration 11 RMS(Cart)=  0.00005758 RMS(Int)=  0.75745263
 Iteration 12 RMS(Cart)=  0.00003410 RMS(Int)=  0.75745268
 Iteration 13 RMS(Cart)=  0.00002023 RMS(Int)=  0.75745254
 Iteration 14 RMS(Cart)=  0.00001200 RMS(Int)=  0.75745240
 Iteration 15 RMS(Cart)=  0.00000710 RMS(Int)=  0.75745229
 Iteration 16 RMS(Cart)=  0.00000420 RMS(Int)=  0.75745223
 Iteration 17 RMS(Cart)=  0.00000248 RMS(Int)=  0.75745218
 Iteration 18 RMS(Cart)=  0.00000147 RMS(Int)=  0.75745215
 Iteration 19 RMS(Cart)=  0.00000087 RMS(Int)=  0.75745214
 Iteration  1 RMS(Cart)=  0.00000051 RMS(Int)=  0.75745213
 Iteration  1 RMS(Cart)=  0.00000030 RMS(Int)=  0.75745212
 Iteration  1 RMS(Cart)=  0.00000018 RMS(Int)=  0.75745212
 Iteration  1 RMS(Cart)=  0.00000011 RMS(Int)=  0.75745212
 Iteration  1 RMS(Cart)=  0.00000006 RMS(Int)=  0.75745212
 Iteration  1 RMS(Cart)=  0.00000004 RMS(Int)=  0.75745212
 Iteration  1 RMS(Cart)=  0.00000002 RMS(Int)=  0.75745212
 Iteration  1 RMS(Cart)=  0.00000001 RMS(Int)=  0.75745212
 Iteration  1 RMS(Cart)=  0.00000001 RMS(Int)=  0.75745211
   Var     Old X     New X   DQ Goal   DQ Act.  Rel. Err.   Overall
     1    2.0566    2.0615    0.0048    0.0048
     2    2.0940    2.0442   -0.0143   -0.0498    3.4816
     3    2.8386    2.8262   -0.0049   -0.0125
     4    3.4818    5.1130    1.6124    1.6312    1.0117
     5    5.2568    3.9902   -1.3047   -1.2666    0.9708
     6    3.3986    3.5987    0.2222    0.2001    0.9004
     7    2.0744    2.0748    0.0005    0.0005
     8    2.0774    2.0633   -0.0029   -0.0141
     9    2.8632    2.8637    0.0005    0.0005
    10    5.5044    5.2639   -0.2307   -0.2405    1.0425
    11    2.0701    2.0691   -0.0010   -0.0010
    12    2.0761    2.0732   -0.0029   -0.0029
    13    2.8612    2.8611   -0.0001   -0.0001
    14    2.0672    2.0683    0.0011    0.0011
    15    2.0718    2.0680   -0.0037   -0.0037
    16    2.0645    2.0643   -0.0002   -0.0002
    17    1.9527    2.0325   -0.0299    0.0798   -2.6736
    18    1.9659    2.0895   -0.0081    0.1236
    19    1.8129    1.8260   -0.0616    0.0131   -0.2120
    20    2.0104    1.9687   -0.0714   -0.0417    0.5836
    21    1.8875    2.1605    0.0165    0.2730   16.5361
    22    1.9121    1.3816   -0.5357   -0.5304    0.9901
    23    0.3772    1.1171    0.7595    0.7400    0.9743
    24    1.9322    1.5504   -0.3371   -0.3817    1.1326
    25    1.5341    1.6077    0.2006    0.0736    0.3668
    26    2.5355    1.4886   -0.9122   -1.0469    1.1477
    27    1.8388    1.8560    0.0402    0.0172    0.4281
    28    1.9462    1.9192   -0.0496   -0.0270    0.5430
    29    1.9669    1.9569    0.0033   -0.0100
    30    1.8772    1.8905    0.0121    0.0133    1.0929
    31    1.8820    1.8740    0.0259   -0.0080   -0.3074
    32    1.9461    1.9624   -0.0304    0.0163   -0.5352
    33    1.2392    1.6434    0.4596    0.4042    0.8793
    34    1.9083    1.8950   -0.0183   -0.0133    0.7278
    35    1.8435    1.8787    0.0403    0.0352    0.8732
    36    1.9533    1.9511   -0.0027   -0.0022
    37    1.8848    1.8833   -0.0015   -0.0015
    38    1.9211    1.9565   -0.0077    0.0354
    39    1.9501    1.8966   -0.0099   -0.0535
    40    1.9301    1.9332    0.0064    0.0030
    41    1.9498    1.9359   -0.0175   -0.0140    0.7994
    42    1.9561    1.9567    0.0006    0.0006
    43    1.8723    1.8781    0.0056    0.0058
    44    1.8742    1.8708    0.0030   -0.0035
    45    1.8773    1.8861    0.0025    0.0088
    46    1.8043    1.8120    0.1098    0.0077    0.0698
    47   -0.3707   -1.2903   -0.8755   -0.9196    1.0503
    48   -2.4781   -2.7074   -0.1709   -0.2293    1.3417
    49   -0.9539   -0.9815   -0.0591   -0.0276    0.4671
    50    1.0774    1.0616   -0.0493   -0.0159    0.3219
    51   -3.0016   -3.0248    3.0204   -0.0232   -0.0077
    52    1.2132    2.1195    0.9471    0.9063    0.9569
    53   -3.0387   -2.1206    0.9570    0.9181    0.9594
    54   -0.8345    0.0763    0.8851    0.9107    1.0290
    55   -2.9752   -2.8352    0.1634    0.1400    0.8565
    56   -0.9438   -0.7921    0.1732    0.1517    0.8757
    57    1.2604    1.4048    0.1013    0.1444    1.4247
    58    1.0793    1.0758   -0.0350   -0.0035    0.1002
    59    3.1106    3.1189   -0.0252    0.0082   -0.3275
    60   -0.9684   -0.9675   -0.0971    0.0009   -0.0095
    61    0.5314    0.7658    0.2473    0.2344    0.9479
    62    2.5392    2.7873    0.2749    0.2481    0.9026
    63   -1.6841   -1.4279    0.2959    0.2562    0.8660
    64   -1.0958   -1.0797    0.0690    0.0161    0.2336
    65    0.9284    0.9547    0.0790    0.0263    0.3327
    66    3.0542    3.0362   -3.0492   -0.0180    0.0059
    67   -3.1178   -3.1121   -0.0019    0.0057
    68   -1.0935   -1.0777    0.0081    0.0158
    69    1.0323    1.0038    0.0215   -0.0284   -1.3248
    70    1.1084    1.0935   -0.0142   -0.0150    1.0566
    71    3.1327    3.1279   -0.0041   -0.0048
    72   -1.0247   -1.0738    0.0092   -0.0491
    73   -1.0587   -1.1154    0.0230   -0.0568   -2.4673
    74    1.0255    0.9688    0.0228   -0.0567   -2.4870
    75    3.1338    3.0790   -3.1273   -0.0548    0.0175
    76    3.0986    3.0353   -3.0888   -0.0633    0.0205
    77   -1.1004   -1.1636    0.0526   -0.0632   -1.2020
    78    1.0079    0.9465    0.0441   -0.0614   -1.3912
    79    1.0047    0.9555    0.0658   -0.0492   -0.7480
    80    3.0888    3.0397   -3.0760   -0.0491    0.0160
    81   -1.0860   -1.1333    0.0571   -0.0473   -0.8280

 GradGradGradGradGradGradGradGradGradGradGradGradGradGradGradGradGradGrad
 Berny optimization.
 Initialization pass.
                           ----------------------------
                           !    Initial Parameters    !
                           ! (Angstroms and Degrees)  !
 --------------------------                            --------------------------
 ! Name  Definition        TS        Reactant  Product Derivative Info.         !
 --------------------------------------------------------------------------------
 ! R1    R(1,2)             1.0909    1.0883    1.0934 estimate D2E/DX2         !
 ! R2    R(1,3)             1.0817    1.1081    1.093  estimate D2E/DX2         !
 ! R3    R(1,4)             1.4955    1.5021    1.4969 estimate D2E/DX2         !
 ! R4    R(1,13)            2.7057    1.8425    3.549  estimate D2E/DX2         !
 ! R5    R(1,14)            2.1115    2.7818    1.4009 estimate D2E/DX2         !
 ! R6    R(3,14)            1.9043    1.7985    2.0336 estimate D2E/DX2         !
 ! R7    R(4,5)             1.098     1.0977    1.0982 estimate D2E/DX2         !
 ! R8    R(4,6)             1.0918    1.0993    1.0962 estimate D2E/DX2         !
 ! R9    R(4,7)             1.5154    1.5152    1.5157 estimate D2E/DX2         !
 ! R10   R(6,13)            2.7855    2.9128    2.6686 estimate D2E/DX2         !
 ! R11   R(7,8)             1.0949    1.0954    1.0944 estimate D2E/DX2         !
 ! R12   R(7,9)             1.0971    1.0986    1.0956 estimate D2E/DX2         !
 ! R13   R(7,10)            1.514     1.5141    1.514  estimate D2E/DX2         !
 ! R14   R(10,11)           1.0945    1.0939    1.0951 estimate D2E/DX2         !
 ! R15   R(10,12)           1.0944    1.0963    1.0924 estimate D2E/DX2         !
 ! R16   R(10,15)           1.0924    1.0925    1.0923 estimate D2E/DX2         !
 ! A1    A(2,1,3)         116.4524  111.8792  108.4582 estimate D2E/DX2         !
 ! A2    A(2,1,4)         119.7212  112.6397  111.7087 estimate D2E/DX2         !
 ! A3    A(2,1,13)        104.6226  103.8736   96.8092 estimate D2E/DX2         !
 ! A4    A(2,1,14)        112.796   115.185   106.9975 estimate D2E/DX2         !
 ! A5    A(3,1,4)         123.7884  108.1451  110.0371 estimate D2E/DX2         !
 ! A6    A(3,1,13)         79.1607  109.553    48.1622 estimate D2E/DX2         !
 ! A7    A(3,1,14)         64.0054   21.6093  108.6374 estimate D2E/DX2         !
 ! A8    A(4,1,13)         88.833   110.7054   72.0817 estimate D2E/DX2         !
 ! A9    A(4,1,14)         92.1156   87.8995  110.8884 estimate D2E/DX2         !
 ! A10   A(1,3,14)         85.2925  145.2757   40.7485 estimate D2E/DX2         !
 ! A11   A(1,4,5)         106.3419  105.3548  109.9656 estimate D2E/DX2         !
 ! A12   A(1,4,6)         109.964   111.5082  105.8209 estimate D2E/DX2         !
 ! A13   A(1,4,7)         112.1195  112.6948  113.0778 estimate D2E/DX2         !
 ! A14   A(5,4,6)         108.3157  107.5563  108.946  estimate D2E/DX2         !
 ! A15   A(5,4,7)         107.3719  107.8283  110.7976 estimate D2E/DX2         !
 ! A16   A(6,4,7)         112.4368  111.505   108.0228 estimate D2E/DX2         !
 ! A17   A(4,6,13)         94.1609   71.0034  123.6745 estimate D2E/DX2         !
 ! A18   A(4,7,8)         108.5779  109.3403  107.2453 estimate D2E/DX2         !
 ! A19   A(4,7,9)         107.6407  105.6245  110.2425 estimate D2E/DX2         !
 ! A20   A(4,7,10)        111.7873  111.915   111.6077 estimate D2E/DX2         !
 ! A21   A(8,7,9)         107.9037  107.9923  107.8204 estimate D2E/DX2         !
 ! A22   A(8,7,10)        112.0965  110.0682  109.1852 estimate D2E/DX2         !
 ! A23   A(9,7,10)        108.6656  111.7314  110.6017 estimate D2E/DX2         !
 ! A24   A(7,10,11)       110.7628  110.5885  111.3253 estimate D2E/DX2         !
 ! A25   A(7,10,12)       110.9161  111.7169  109.7134 estimate D2E/DX2         !
 ! A26   A(7,10,15)       112.1086  112.0758  112.145  estimate D2E/DX2         !
 ! A27   A(11,10,12)      107.6046  107.275   107.9161 estimate D2E/DX2         !
 ! A28   A(11,10,15)      107.1883  107.3864  107.7283 estimate D2E/DX2         !
 ! A29   A(12,10,15)      108.0666  107.5635  107.8542 estimate D2E/DX2         !
 ! D1    D(2,1,3,14)      103.819   103.3798  115.9645 estimate D2E/DX2         !
 ! D2    D(4,1,3,14)      -73.9265  -21.2399 -121.5691 estimate D2E/DX2         !
 ! D3    D(13,1,3,14)    -155.1215 -141.9857 -161.5667 estimate D2E/DX2         !
 ! D4    D(2,1,4,5)       -56.2381  -54.6553  -61.4322 estimate D2E/DX2         !
 ! D5    D(2,1,4,6)        60.8226   61.7319   56.0831 estimate D2E/DX2         !
 ! D6    D(2,1,4,7)      -173.3056 -171.9768  174.136  estimate D2E/DX2         !
 ! D7    D(3,1,4,5)       121.4377   69.5097  178.0414 estimate D2E/DX2         !
 ! D8    D(3,1,4,6)      -121.5016 -174.1032  -64.4434 estimate D2E/DX2         !
 ! D9    D(3,1,4,7)         4.3702  -47.8118   53.6096 estimate D2E/DX2         !
 ! D10   D(13,1,4,5)     -162.4459 -170.4649 -151.7408 estimate D2E/DX2         !
 ! D11   D(13,1,4,6)      -45.3853  -54.0778  -34.2256 estimate D2E/DX2         !
 ! D12   D(13,1,4,7)       80.4866   72.2135   83.8273 estimate D2E/DX2         !
 ! D13   D(14,1,4,5)       61.6363   61.8374   57.8241 estimate D2E/DX2         !
 ! D14   D(14,1,4,6)      178.697   178.2246  175.3394 estimate D2E/DX2         !
 ! D15   D(14,1,4,7)      -55.4312  -55.4841  -66.6077 estimate D2E/DX2         !
 ! D16   D(1,4,6,13)       43.8782   30.4483   58.7858 estimate D2E/DX2         !
 ! D17   D(5,4,6,13)      159.7004  145.4849  176.9825 estimate D2E/DX2         !
 ! D18   D(7,4,6,13)      -81.8133  -96.4933  -62.5889 estimate D2E/DX2         !
 ! D19   D(1,4,7,8)       -61.8615  -62.7855  -54.8763 estimate D2E/DX2         !
 ! D20   D(1,4,7,9)        54.7029   53.1961   62.2535 estimate D2E/DX2         !
 ! D21   D(1,4,7,10)      173.9635  174.9935 -174.4177 estimate D2E/DX2         !
 ! D22   D(5,4,7,8)      -178.31   -178.6342 -178.8533 estimate D2E/DX2         !
 ! D23   D(5,4,7,9)       -61.7456  -62.6526  -61.7235 estimate D2E/DX2         !
 ! D24   D(5,4,7,10)       57.515    59.1448   61.6053 estimate D2E/DX2         !
 ! D25   D(6,4,7,8)        62.6501   63.5076   61.8845 estimate D2E/DX2         !
 ! D26   D(6,4,7,9)       179.2146  179.4891  179.0143 estimate D2E/DX2         !
 ! D27   D(6,4,7,10)      -61.5249  -58.7134  -57.6569 estimate D2E/DX2         !
 ! D28   D(4,7,10,11)     -63.9094  -60.6569  -58.0204 estimate D2E/DX2         !
 ! D29   D(4,7,10,12)      55.5078   58.7541   61.3647 estimate D2E/DX2         !
 ! D30   D(4,7,10,15)     176.4121  179.5544 -178.8041 estimate D2E/DX2         !
 ! D31   D(8,7,10,11)     173.9107  177.5391 -176.4084 estimate D2E/DX2         !
 ! D32   D(8,7,10,12)     -66.672   -63.0499  -57.0233 estimate D2E/DX2         !
 ! D33   D(8,7,10,15)      54.2322   57.7503   62.8079 estimate D2E/DX2         !
 ! D34   D(9,7,10,11)      54.7438   57.5639   65.1042 estimate D2E/DX2         !
 ! D35   D(9,7,10,12)     174.161   176.9749 -175.5107 estimate D2E/DX2         !
 ! D36   D(9,7,10,15)     -64.9347  -62.2248  -55.6795 estimate D2E/DX2         !
 --------------------------------------------------------------------------------
 Trust Radius=3.00D-01 FncErr=1.00D-07 GrdErr=1.00D-07
 Number of steps in this run=     91 maximum allowed number of steps=    100.
 Search for a saddle point of order  1.
 GradGradGradGradGradGradGradGradGradGradGradGradGradGradGradGradGradGrad

                          Input orientation:                          
 ---------------------------------------------------------------------
 Center     Atomic      Atomic             Coordinates (Angstroms)
 Number     Number       Type             X           Y           Z
 ---------------------------------------------------------------------
      1          6           0       -0.706891    0.691576    0.742913
      2          1           0       -1.311621    0.939934    1.616200
      3          1           0       -0.981291    1.173217   -0.186007
      4          6           0        0.459980   -0.232611    0.887576
      5          1           0        1.109230    0.207475    1.655885
      6          1           0        0.121208   -1.208069    1.242270
      7          6           0        1.271536   -0.331057   -0.388420
      8          1           0        0.632415   -0.740336   -1.177616
      9          1           0        1.557357    0.687230   -0.680054
     10          6           0        2.529692   -1.150132   -0.192406
     11          1           0        3.201275   -0.664637    0.522608
     12          1           0        2.291827   -2.143965    0.199165
     13         17           0       -2.063824   -1.302711   -0.482812
     14          9           0        0.532431    2.285868    0.125747
     15          1           0        3.086727   -1.277248   -1.123441
 ---------------------------------------------------------------------
                    Distance matrix (angstroms):
                    1          2          3          4          5
     1  C    0.000000
     2  H    1.090875   0.000000
     3  H    1.081742   1.847022   0.000000
     4  C    1.495540   2.245958   2.281710   0.000000
     5  H    2.089538   2.529544   2.948814   1.097952   0.000000
     6  H    2.131609   2.608973   2.987642   1.091830   1.775114
     7  C    2.497973   3.508079   2.716439   1.515414   2.120269
     8  H    2.744549   3.795786   2.692401   2.133667   3.025628
     9  H    2.674262   3.683433   2.631540   2.123161   2.426437
    10  C    3.839555   4.732348   4.210106   2.508368   2.697589
    11  H    4.142658   4.912924   4.623170   2.799026   2.534077
    12  H    4.162724   4.950077   4.676041   2.735479   3.008295
    13  Cl   2.705707   3.162455   2.718491   3.064746   4.113753
    14  F    2.111535   2.726448   1.904347   2.632180   2.644567
    15  H    4.663806   5.636221   4.840695   3.469186   3.720154
                    6          7          8          9         10
     6  H    0.000000
     7  C    2.179806   0.000000
     8  H    2.517132   1.094905   0.000000
     9  H    3.057780   1.097112   1.772296   0.000000
    10  C    2.804006   1.514022   2.176748   2.135214   0.000000
    11  H    3.209369   2.159894   3.081482   2.444669   1.094520
    12  H    2.583710   2.161686   2.572809   3.054200   1.094354
    13  Cl   2.785540   3.475292   2.840550   4.136633   4.605215
    14  F    3.690979   2.767479   3.296462   2.062870   3.987025
    15  H    3.794164   2.174960   2.512938   2.528782   1.092370
                   11         12         13         14         15
    11  H    0.000000
    12  H    1.766387   0.000000
    13  Cl   5.398081   4.488262   0.000000
    14  F    3.998213   4.766999   4.470882   0.000000
    15  H    1.760082   1.769845   5.190302   4.558584   0.000000
 Stoichiometry    C4H9ClF(1-)
 Framework group  C1[X(C4H9ClF)]
 Deg. of freedom    39
 Full point group                 C1      NOp   1
 Largest Abelian subgroup         C1      NOp   1
 Largest concise Abelian subgroup C1      NOp   1
                         Standard orientation:                         
 ---------------------------------------------------------------------
 Center     Atomic      Atomic             Coordinates (Angstroms)
 Number     Number       Type             X           Y           Z
 ---------------------------------------------------------------------
      1          6           0       -0.348393    1.187362    0.518897
      2          1           0       -0.765206    1.791951    1.325586
      3          1           0       -0.546629    1.526198   -0.489101
      4          6           0        0.488158   -0.008696    0.844884
      5          1           0        1.308655    0.351778    1.479189
      6          1           0       -0.098487   -0.728665    1.418978
      7          6           0        1.109761   -0.624628   -0.392338
      8          1           0        0.306360   -0.964204   -1.054193
      9          1           0        1.665122    0.164975   -0.913641
     10          6           0        2.069679   -1.741856   -0.042167
     11          1           0        2.920321   -1.357636    0.529460
     12          1           0        1.576435   -2.503263    0.569863
     13         17           0       -2.356786   -0.480212   -0.192724
     14          9           0        1.256724    2.137843   -0.470430
     15          1           0        2.473050   -2.231202   -0.931608
 ---------------------------------------------------------------------
 Rotational constants (GHZ):      2.5360362      1.4524804      1.0319723
 Standard basis: Aug-CC-pVTZ (5D, 7F)
 There are   559 symmetry adapted cartesian basis functions of A   symmetry.
 There are   487 symmetry adapted basis functions of A   symmetry.
   487 basis functions,   717 primitive gaussians,   559 cartesian basis functions
    30 alpha electrons       30 beta electrons
       nuclear repulsion energy       285.2154933924 Hartrees.
 NAtoms=   15 NActive=   15 NUniq=   15 SFac= 1.00D+00 NAtFMM=   60 NAOKFM=F Big=F
 Integral buffers will be    131072 words long.
 Raffenetti 1 integral format.
 Two-electron integral symmetry is turned on.
 One-electron integrals computed using PRISM.
 NBasis=   487 RedAO= T EigKep=  5.20D-06  NBF=   487
 NBsUse=   487 1.00D-06 EigRej= -1.00D+00 NBFU=   487
 ExpMin= 2.53D-02 ExpMax= 4.56D+05 ExpMxC= 1.44D+03 IAcc=3 IRadAn=         5 AccDes= 0.00D+00
 Harris functional with IExCor=  205 and IRadAn=       5 diagonalized for initial guess.
 HarFok:  IExCor=  205 AccDes= 0.00D+00 IRadAn=         5 IDoV= 1 UseB2=F ITyADJ=14
 ICtDFT=  3500011 ScaDFX=  1.000000  1.000000  1.000000  1.000000
 FoFCou: FMM=F IPFlag=           0 FMFlag=      100000 FMFlg1=           0
         NFxFlg=           0 DoJE=T BraDBF=F KetDBF=T FulRan=T
         wScrn=  0.000000 ICntrl=     500 IOpCl=  0 I1Cent=   200000004 NGrid=           0
         NMat0=    1 NMatS0=      1 NMatT0=    0 NMatD0=    1 NMtDS0=    0 NMtDT0=    0
 Petite list used in FoFCou.
 Requested convergence on RMS density matrix=1.00D-08 within 128 cycles.
 Requested convergence on MAX density matrix=1.00D-06.
 Requested convergence on             energy=1.00D-06.
 No special actions if energy rises.
 Initial convergence to 1.0D-05 achieved.  Increase integral accuracy.
 SCF Done:  E(RHF) =  -715.736538349     A.U. after   15 cycles
            NFock= 15  Conv=0.24D-08     -V/T= 2.0004

 **********************************************************************

            Population analysis using the SCF density.

 **********************************************************************

 Orbital symmetries:
       Occupied  (A) (A) (A) (A) (A) (A) (A) (A) (A) (A) (A) (A)
                 (A) (A) (A) (A) (A) (A) (A) (A) (A) (A) (A) (A)
                 (A) (A) (A) (A) (A) (A)
       Virtual   (A) (A) (A) (A) (A) (A) (A) (A) (A) (A) (A) (A)
                 (A) (A) (A) (A) (A) (A) (A) (A) (A) (A) (A) (A)
                 (A) (A) (A) (A) (A) (A) (A) (A) (A) (A) (A) (A)
                 (A) (A) (A) (A) (A) (A) (A) (A) (A) (A) (A) (A)
                 (A) (A) (A) (A) (A) (A) (A) (A) (A) (A) (A) (A)
                 (A) (A) (A) (A) (A) (A) (A) (A) (A) (A) (A) (A)
                 (A) (A) (A) (A) (A) (A) (A) (A) (A) (A) (A) (A)
                 (A) (A) (A) (A) (A) (A) (A) (A) (A) (A) (A) (A)
                 (A) (A) (A) (A) (A) (A) (A) (A) (A) (A) (A) (A)
                 (A) (A) (A) (A) (A) (A) (A) (A) (A) (A) (A) (A)
                 (A) (A) (A) (A) (A) (A) (A) (A) (A) (A) (A) (A)
                 (A) (A) (A) (A) (A) (A) (A) (A) (A) (A) (A) (A)
                 (A) (A) (A) (A) (A) (A) (A) (A) (A) (A) (A) (A)
                 (A) (A) (A) (A) (A) (A) (A) (A) (A) (A) (A) (A)
                 (A) (A) (A) (A) (A) (A) (A) (A) (A) (A) (A) (A)
                 (A) (A) (A) (A) (A) (A) (A) (A) (A) (A) (A) (A)
                 (A) (A) (A) (A) (A) (A) (A) (A) (A) (A) (A) (A)
                 (A) (A) (A) (A) (A) (A) (A) (A) (A) (A) (A) (A)
                 (A) (A) (A) (A) (A) (A) (A) (A) (A) (A) (A) (A)
                 (A) (A) (A) (A) (A) (A) (A) (A) (A) (A) (A) (A)
                 (A) (A) (A) (A) (A) (A) (A) (A) (A) (A) (A) (A)
                 (A) (A) (A) (A) (A) (A) (A) (A) (A) (A) (A) (A)
                 (A) (A) (A) (A) (A) (A) (A) (A) (A) (A) (A) (A)
                 (A) (A) (A) (A) (A) (A) (A) (A) (A) (A) (A) (A)
                 (A) (A) (A) (A) (A) (A) (A) (A) (A) (A) (A) (A)
                 (A) (A) (A) (A) (A) (A) (A) (A) (A) (A) (A) (A)
                 (A) (A) (A) (A) (A) (A) (A) (A) (A) (A) (A) (A)
                 (A) (A) (A) (A) (A) (A) (A) (A) (A) (A) (A) (A)
                 (A) (A) (A) (A) (A) (A) (A) (A) (A) (A) (A) (A)
                 (A) (A) (A) (A) (A) (A) (A) (A) (A) (A) (A) (A)
                 (A) (A) (A) (A) (A) (A) (A) (A) (A) (A) (A) (A)
                 (A) (A) (A) (A) (A) (A) (A) (A) (A) (A) (A) (A)
                 (A) (A) (A) (A) (A) (A) (A) (A) (A) (A) (A) (A)
                 (A) (A) (A) (A) (A) (A) (A) (A) (A) (A) (A) (A)
                 (A) (A) (A) (A) (A) (A) (A) (A) (A) (A) (A) (A)
                 (A) (A) (A) (A) (A) (A) (A) (A) (A) (A) (A) (A)
                 (A) (A) (A) (A) (A) (A) (A) (A) (A) (A) (A) (A)
                 (A) (A) (A) (A) (A) (A) (A) (A) (A) (A) (A) (A)
                 (A)
 The electronic state is 1-A.
 Alpha  occ. eigenvalues -- -104.56310 -25.96621 -11.21259 -11.10635 -11.09474
 Alpha  occ. eigenvalues --  -11.07177 -10.28748  -7.75361  -7.75340  -7.75338
 Alpha  occ. eigenvalues --   -1.22406  -0.95806  -0.86793  -0.79659  -0.73976
 Alpha  occ. eigenvalues --   -0.66611  -0.51452  -0.50868  -0.48414  -0.43047
 Alpha  occ. eigenvalues --   -0.42393  -0.36759  -0.35582  -0.34524  -0.31761
 Alpha  occ. eigenvalues --   -0.30612  -0.30205  -0.21033  -0.20957  -0.20730
 Alpha virt. eigenvalues --    0.11035   0.11942   0.12756   0.13094   0.14502
 Alpha virt. eigenvalues --    0.15125   0.15643   0.16607   0.16893   0.19393
 Alpha virt. eigenvalues --    0.20536   0.21094   0.21431   0.22904   0.23305
 Alpha virt. eigenvalues --    0.23348   0.23736   0.24582   0.25465   0.25937
 Alpha virt. eigenvalues --    0.26626   0.26943   0.28829   0.28954   0.29387
 Alpha virt. eigenvalues --    0.30153   0.31839   0.32435   0.33106   0.34108
 Alpha virt. eigenvalues --    0.35306   0.37642   0.38693   0.39361   0.39873
 Alpha virt. eigenvalues --    0.41158   0.41589   0.43299   0.43583   0.43796
 Alpha virt. eigenvalues --    0.44772   0.45408   0.45967   0.46460   0.46555
 Alpha virt. eigenvalues --    0.47291   0.47610   0.48180   0.48604   0.49252
 Alpha virt. eigenvalues --    0.50637   0.50835   0.51504   0.51835   0.52602
 Alpha virt. eigenvalues --    0.53581   0.54790   0.55179   0.55483   0.55745
 Alpha virt. eigenvalues --    0.56200   0.56562   0.57945   0.58619   0.59545
 Alpha virt. eigenvalues --    0.59623   0.60234   0.60868   0.61597   0.62726
 Alpha virt. eigenvalues --    0.63193   0.63623   0.64065   0.64775   0.65389
 Alpha virt. eigenvalues --    0.66270   0.67290   0.68113   0.68945   0.69045
 Alpha virt. eigenvalues --    0.69609   0.70802   0.71202   0.71838   0.72636
 Alpha virt. eigenvalues --    0.72908   0.73652   0.74823   0.75588   0.76220
 Alpha virt. eigenvalues --    0.76804   0.78132   0.79256   0.80638   0.82226
 Alpha virt. eigenvalues --    0.82900   0.86722   0.86923   0.89918   0.90224
 Alpha virt. eigenvalues --    0.91922   0.94075   0.94715   0.95154   0.95700
 Alpha virt. eigenvalues --    0.96895   0.97869   0.98352   0.98696   0.99845
 Alpha virt. eigenvalues --    1.00841   1.01550   1.02339   1.03296   1.03693
 Alpha virt. eigenvalues --    1.04066   1.04816   1.06074   1.06383   1.07430
 Alpha virt. eigenvalues --    1.08214   1.09051   1.09395   1.09992   1.11444
 Alpha virt. eigenvalues --    1.12882   1.13498   1.13706   1.14047   1.16141
 Alpha virt. eigenvalues --    1.17129   1.17722   1.19242   1.19642   1.20161
 Alpha virt. eigenvalues --    1.20555   1.21675   1.21973   1.23471   1.24253
 Alpha virt. eigenvalues --    1.24506   1.25255   1.25510   1.26579   1.27155
 Alpha virt. eigenvalues --    1.27450   1.28169   1.29475   1.30182   1.30948
 Alpha virt. eigenvalues --    1.31807   1.32664   1.33417   1.34010   1.35508
 Alpha virt. eigenvalues --    1.35705   1.37177   1.37618   1.38745   1.39621
 Alpha virt. eigenvalues --    1.40709   1.40920   1.42534   1.43502   1.44273
 Alpha virt. eigenvalues --    1.44378   1.45521   1.46475   1.48110   1.49978
 Alpha virt. eigenvalues --    1.50581   1.52589   1.53858   1.54676   1.56315
 Alpha virt. eigenvalues --    1.57159   1.57565   1.59599   1.60124   1.61380
 Alpha virt. eigenvalues --    1.62663   1.63773   1.65589   1.65986   1.68031
 Alpha virt. eigenvalues --    1.68917   1.69701   1.70919   1.72284   1.74346
 Alpha virt. eigenvalues --    1.75287   1.76754   1.77409   1.78286   1.79006
 Alpha virt. eigenvalues --    1.79486   1.80551   1.81199   1.83103   1.83609
 Alpha virt. eigenvalues --    1.84298   1.84621   1.85706   1.86551   1.89006
 Alpha virt. eigenvalues --    1.89887   1.90683   1.91179   1.92123   1.93017
 Alpha virt. eigenvalues --    1.93504   1.95480   1.95729   1.97784   1.98549
 Alpha virt. eigenvalues --    1.99885   2.00271   2.01984   2.03725   2.04529
 Alpha virt. eigenvalues --    2.04868   2.07430   2.07626   2.08620   2.11395
 Alpha virt. eigenvalues --    2.12253   2.12437   2.14282   2.14597   2.17221
 Alpha virt. eigenvalues --    2.18124   2.19565   2.22196   2.23462   2.24016
 Alpha virt. eigenvalues --    2.25514   2.27856   2.29495   2.30413   2.31010
 Alpha virt. eigenvalues --    2.35749   2.36194   2.37069   2.38174   2.38873
 Alpha virt. eigenvalues --    2.41464   2.42314   2.44816   2.45879   2.46882
 Alpha virt. eigenvalues --    2.48515   2.49815   2.52089   2.57440   2.58861
 Alpha virt. eigenvalues --    2.60414   2.62092   2.63054   2.64096   2.70231
 Alpha virt. eigenvalues --    2.72239   2.78046   2.79213   2.82384   2.85467
 Alpha virt. eigenvalues --    2.87614   2.91874   2.94140   2.97323   2.98403
 Alpha virt. eigenvalues --    3.06037   3.10045   3.14509   3.16376   3.19399
 Alpha virt. eigenvalues --    3.21464   3.24398   3.26668   3.31606   3.32246
 Alpha virt. eigenvalues --    3.34025   3.35540   3.37535   3.38231   3.39425
 Alpha virt. eigenvalues --    3.40417   3.41081   3.43445   3.46398   3.49417
 Alpha virt. eigenvalues --    3.51722   3.52525   3.55077   3.56369   3.57967
 Alpha virt. eigenvalues --    3.59352   3.59983   3.61281   3.62886   3.64974
 Alpha virt. eigenvalues --    3.66556   3.68741   3.70730   3.72018   3.73375
 Alpha virt. eigenvalues --    3.73678   3.76810   3.78249   3.79356   3.79772
 Alpha virt. eigenvalues --    3.83348   3.84658   3.84989   3.86629   3.87405
 Alpha virt. eigenvalues --    3.88416   3.89274   3.91487   3.93422   3.94053
 Alpha virt. eigenvalues --    3.94305   3.98630   4.00034   4.00912   4.02636
 Alpha virt. eigenvalues --    4.03033   4.05210   4.07665   4.09229   4.09657
 Alpha virt. eigenvalues --    4.10866   4.11661   4.14190   4.16120   4.17547
 Alpha virt. eigenvalues --    4.19894   4.20269   4.22402   4.24026   4.24772
 Alpha virt. eigenvalues --    4.26576   4.28701   4.30431   4.31549   4.33031
 Alpha virt. eigenvalues --    4.34610   4.38393   4.38738   4.39899   4.43099
 Alpha virt. eigenvalues --    4.43982   4.47570   4.48427   4.50665   4.52752
 Alpha virt. eigenvalues --    4.53981   4.56202   4.57086   4.62778   4.65883
 Alpha virt. eigenvalues --    4.66646   4.67163   4.70094   4.75646   4.77594
 Alpha virt. eigenvalues --    4.78930   4.80298   4.80819   4.83890   4.87490
 Alpha virt. eigenvalues --    4.89923   4.93129   4.93385   4.96890   4.97733
 Alpha virt. eigenvalues --    4.98772   5.00940   5.04714   5.07188   5.09442
 Alpha virt. eigenvalues --    5.12484   5.13397   5.18555   5.20865   5.24585
 Alpha virt. eigenvalues --    5.26187   5.27723   5.29675   5.29823   5.31388
 Alpha virt. eigenvalues --    5.33859   5.36456   5.38687   5.41398   5.41992
 Alpha virt. eigenvalues --    5.45675   5.47724   5.50442   5.51373   5.54201
 Alpha virt. eigenvalues --    5.55689   5.58708   5.60294   5.61372   5.62954
 Alpha virt. eigenvalues --    5.65875   5.71587   5.74520   5.75550   5.79647
 Alpha virt. eigenvalues --    5.82168   5.84391   5.85529   5.89085   5.94104
 Alpha virt. eigenvalues --    5.97399   6.00355   6.05393   6.07738   6.13694
 Alpha virt. eigenvalues --    6.23281   6.24292   6.27037   6.28733   6.32924
 Alpha virt. eigenvalues --    6.34991   6.37703   6.41710   6.43815   6.46506
 Alpha virt. eigenvalues --    6.51904   6.59248   6.71375   6.78753   6.88593
 Alpha virt. eigenvalues --    6.94824   6.95949   6.98414   7.05937   7.14514
 Alpha virt. eigenvalues --    9.27100   9.29237   9.35665   9.41130   9.52714
 Alpha virt. eigenvalues --    9.56177   9.64301   9.79147   9.84090   9.84456
 Alpha virt. eigenvalues --    9.90910   9.93262  13.95566  17.68131  18.25770
 Alpha virt. eigenvalues --   18.72937  19.37565
          Condensed to atoms (all electrons):
               1          2          3          4          5          6
     1  C    5.910065   0.381265   0.255104   0.163105  -0.085411   0.000183
     2  H    0.381265   0.340335  -0.074343  -0.027328  -0.017520  -0.016739
     3  H    0.255104  -0.074343   0.311878  -0.005713   0.011424   0.013588
     4  C    0.163105  -0.027328  -0.005713   5.216399   0.357898   0.317737
     5  H   -0.085411  -0.017520   0.011424   0.357898   0.386061   0.027794
     6  H    0.000183  -0.016739   0.013588   0.317737   0.027794   0.328320
     7  C    0.016129  -0.003833   0.038037   0.101122  -0.017926   0.021604
     8  H   -0.028481   0.005774  -0.014279   0.074347   0.006255  -0.012652
     9  H   -0.007592   0.007869  -0.019918   0.058224  -0.015654   0.003678
    10  C   -0.009944   0.002931  -0.004245   0.030580   0.000695  -0.016349
    11  H   -0.000019  -0.000024   0.000329  -0.001434  -0.008789  -0.006838
    12  H    0.000342  -0.000032  -0.000212  -0.006313  -0.010927  -0.009335
    13  Cl  -0.010157   0.032572  -0.028369  -0.004047   0.005970  -0.023257
    14  F    0.041661   0.011564  -0.075202  -0.094085  -0.020708   0.006711
    15  H    0.005349   0.000463  -0.000536   0.000520   0.004040   0.002343
               7          8          9         10         11         12
     1  C    0.016129  -0.028481  -0.007592  -0.009944  -0.000019   0.000342
     2  H   -0.003833   0.005774   0.007869   0.002931  -0.000024  -0.000032
     3  H    0.038037  -0.014279  -0.019918  -0.004245   0.000329  -0.000212
     4  C    0.101122   0.074347   0.058224   0.030580  -0.001434  -0.006313
     5  H   -0.017926   0.006255  -0.015654   0.000695  -0.008789  -0.010927
     6  H    0.021604  -0.012652   0.003678  -0.016349  -0.006838  -0.009335
     7  C    5.554820   0.317387   0.336434   0.065570   0.022182   0.046542
     8  H    0.317387   0.337420   0.017977   0.012802   0.003397   0.004638
     9  H    0.336434   0.017977   0.311393  -0.019673   0.001492   0.002432
    10  C    0.065570   0.012802  -0.019673   5.721016   0.399307   0.377822
    11  H    0.022182   0.003397   0.001492   0.399307   0.318668   0.024857
    12  H    0.046542   0.004638   0.002432   0.377822   0.024857   0.320169
    13  Cl  -0.047364   0.017964  -0.000714   0.007443   0.000854   0.000871
    14  F    0.000348  -0.008616   0.016473  -0.004168  -0.001978   0.001180
    15  H   -0.040729  -0.005423  -0.005892   0.450985  -0.002779   0.000754
              13         14         15
     1  C   -0.010157   0.041661   0.005349
     2  H    0.032572   0.011564   0.000463
     3  H   -0.028369  -0.075202  -0.000536
     4  C   -0.004047  -0.094085   0.000520
     5  H    0.005970  -0.020708   0.004040
     6  H   -0.023257   0.006711   0.002343
     7  C   -0.047364   0.000348  -0.040729
     8  H    0.017964  -0.008616  -0.005423
     9  H   -0.000714   0.016473  -0.005892
    10  C    0.007443  -0.004168   0.450985
    11  H    0.000854  -0.001978  -0.002779
    12  H    0.000871   0.001180   0.000754
    13  Cl  17.942432   0.008266  -0.000237
    14  F    0.008266  10.017315   0.000655
    15  H   -0.000237   0.000655   0.323600
 Mulliken charges:
               1
     1  C   -0.631599
     2  H    0.357049
     3  H    0.592457
     4  C   -0.181012
     5  H    0.376799
     6  H    0.363212
     7  C   -0.410325
     8  H    0.271490
     9  H    0.313471
    10  C   -1.014772
    11  H    0.250774
    12  H    0.247212
    13  Cl  -0.902227
    14  F   -0.899415
    15  H    0.266886
 Sum of Mulliken charges =  -1.00000
 Mulliken charges with hydrogens summed into heavy atoms:
               1
     1  C    0.317907
     4  C    0.558999
     7  C    0.174636
    10  C   -0.249900
    13  Cl  -0.902227
    14  F   -0.899415
 Electronic spatial extent (au):  <R**2>=           1141.8304
 Charge=             -1.0000 electrons
 Dipole moment (field-independent basis, Debye):
    X=              3.8464    Y=             -2.1240    Z=              3.2753  Tot=              5.4803
 Quadrupole moment (field-independent basis, Debye-Ang):
   XX=            -78.9744   YY=            -64.0567   ZZ=            -48.5353
   XY=            -14.1130   XZ=             -0.1907   YZ=              4.8439
 Traceless Quadrupole moment (field-independent basis, Debye-Ang):
   XX=            -15.1189   YY=             -0.2013   ZZ=             15.3202
   XY=            -14.1130   XZ=             -0.1907   YZ=              4.8439
 Octapole moment (field-independent basis, Debye-Ang**2):
  XXX=             60.4135  YYY=            -12.2319  ZZZ=             -0.0533  XYY=            -22.2787
  XXY=              8.1785  XXZ=              5.7921  XZZ=              3.5863  YZZ=              5.7527
  YYZ=             10.0269  XYZ=              5.2207
 Hexadecapole moment (field-independent basis, Debye-Ang**3):
 XXXX=          -1100.9597 YYYY=           -581.9798 ZZZZ=           -149.4586 XXXY=            -18.7417
 XXXZ=             -9.8272 YYYX=            -36.5120 YYYZ=             18.6617 ZZZX=             -7.1648
 ZZZY=              0.5785 XXYY=           -284.5935 XXZZ=           -183.5470 YYZZ=           -105.2199
 XXYZ=              6.5161 YYXZ=              4.6117 ZZXY=             -1.1140
 N-N= 2.852154933924D+02 E-N=-2.279780234329D+03  KE= 7.154731907303D+02
 Calling FoFJK, ICntrl=      2127 FMM=F ISym2X=0 I1Cent= 0 IOpClX= 0 NMat=1 NMatS=1 NMatT=0.
 ***** Axes restored to original set *****
 -------------------------------------------------------------------
 Center     Atomic                   Forces (Hartrees/Bohr)
 Number     Number              X              Y              Z
 -------------------------------------------------------------------
      1        6           0.006921096    0.015278085   -0.025376949
      2        1           0.008925746   -0.001660792   -0.008624325
      3        1          -0.001736176   -0.021405291    0.013717263
      4        6           0.005264353    0.008794197    0.004169420
      5        1          -0.008169043   -0.001535722   -0.001005172
      6        1          -0.000513406    0.008502552   -0.002170223
      7        6           0.002022163    0.009046519   -0.016753522
      8        1           0.007455177    0.000209683    0.006557026
      9        1          -0.006616974   -0.013056999    0.003320461
     10        6           0.005699734   -0.009974666    0.003279512
     11        1          -0.002989665   -0.002606182   -0.002870302
     12        1           0.003515280    0.002826905   -0.002671006
     13       17          -0.008288924    0.000530592    0.004484633
     14        9          -0.008050903    0.004568995    0.020261833
     15        1          -0.003438458    0.000482124    0.003681350
 -------------------------------------------------------------------
 Cartesian Forces:  Max     0.025376949 RMS     0.008815312

 GradGradGradGradGradGradGradGradGradGradGradGradGradGradGradGradGradGrad
 Berny optimization.
 FormGI is forming the generalized inverse of G from B-inverse, IUseBI=4.
 Internal  Forces:  Max     0.021978091 RMS     0.006402416
 Search for a saddle point.
 Step number   1 out of a maximum of   91
 All quantities printed in internal units (Hartrees-Bohrs-Radians)
 Second derivative matrix not updated -- first step.
 ITU=  0
 LST/QST climbing along tangent vector
     Eigenvalues ---    0.00564   0.00587   0.01093   0.02584   0.03391
     Eigenvalues ---    0.03800   0.04107   0.04851   0.05047   0.05464
     Eigenvalues ---    0.05541   0.05696   0.05922   0.06286   0.06314
     Eigenvalues ---    0.06919   0.08260   0.09986   0.12122   0.12258
     Eigenvalues ---    0.15992   0.16000   0.16000   0.16000   0.17407
     Eigenvalues ---    0.17612   0.21941   0.30813   0.30950   0.31992
     Eigenvalues ---    0.33910   0.34004   0.34239   0.34252   0.34296
     Eigenvalues ---    0.34314   0.34540   0.34712   0.350701000.00000
     Eigenvalues --- 1000.000001000.000001000.000001000.000001000.00000
     Eigenvalues --- 1000.000001000.000001000.000001000.000001000.00000
     Eigenvalues --- 1000.000001000.000001000.000001000.000001000.00000
     Eigenvalues --- 1000.000001000.000001000.000001000.000001000.00000
     Eigenvalues --- 1000.000001000.000001000.000001000.000001000.00000
     Eigenvalues --- 1000.000001000.000001000.000001000.000001000.00000
     Eigenvalues --- 1000.000001000.000001000.000001000.000001000.00000
     Eigenvalues --- 1000.000001000.000001000.000001000.000001000.00000
     Eigenvalues --- 1000.00000
 Eigenvectors required to have negative eigenvalues:
                          D19       D20       D21       D22       D23
   1                    0.32866   0.32863   0.32848   0.32816   0.32812
                          D24       D25       D26       D27       D34
   1                    0.32797   0.32654   0.32650   0.32635  -0.06038
 QST in optimization variable space.
 Eigenvectors 1 and  15 swapped, overlap=  1.0000
                        Tangent   TS vect  // Eig F  Eigenval
   1         R1         0.00151   0.00151   0.01351   0.06314
   2         R2        -0.00019  -0.00019   0.00038   0.00587
   3         R3        -0.00417  -0.00417  -0.00305   0.01093
   4         R4         0.50593   0.50593   0.00309   0.02584
   5         R5        -0.42038  -0.42038  -0.01377   0.03391
   6         R6         0.08070   0.08070  -0.00179   0.03800
   7         R7         0.00015   0.00015   0.00677   0.04107
   8         R8        -0.00117  -0.00117  -0.00297   0.04851
   9         R9         0.00015   0.00015  -0.00008   0.05047
  10         R10       -0.07222  -0.07222  -0.00090   0.05464
  11         R11       -0.00031  -0.00031  -0.00023   0.05541
  12         R12       -0.00091  -0.00091   0.00075   0.05696
  13         R13       -0.00004  -0.00004  -0.00201   0.05922
  14         R14        0.00034   0.00034  -0.00271   0.06286
  15         R15       -0.00116  -0.00116   0.00019   0.00564
  16         R16       -0.00007  -0.00007   0.00105   0.06919
  17         A1         0.00102   0.00102  -0.00018   0.08260
  18         A2         0.00483   0.00483  -0.00503   0.09986
  19         A3        -0.01081  -0.01081  -0.00313   0.12122
  20         A4        -0.03513  -0.03513   0.00017   0.12258
  21         A5         0.00476   0.00476  -0.00104   0.15992
  22         A6        -0.15426  -0.15426   0.00228   0.16000
  23         A7         0.21704   0.21704   0.00066   0.16000
  24         A8        -0.09672  -0.09672  -0.00092   0.16000
  25         A9         0.06705   0.06705   0.00830   0.17407
  26         A10       -0.26651  -0.26651   0.00922   0.17612
  27         A11        0.01627   0.01627  -0.00022   0.21941
  28         A12       -0.01771  -0.01771   0.00423   0.30813
  29         A13       -0.00079  -0.00079   0.00376   0.30950
  30         A14        0.00251   0.00251  -0.00151   0.31992
  31         A15        0.00759   0.00759  -0.00308   0.33910
  32         A16       -0.00564  -0.00564  -0.00735   0.34004
  33         A17        0.14243   0.14243  -0.00342   0.34239
  34         A18       -0.00554  -0.00554  -0.00453   0.34252
  35         A19        0.01265   0.01265  -0.00245   0.34296
  36         A20       -0.00065  -0.00065  -0.00209   0.34314
  37         A21       -0.00055  -0.00055  -0.00247   0.34540
  38         A22       -0.00201  -0.00201  -0.00619   0.34712
  39         A23       -0.00322  -0.00322  -0.01107   0.35070
  40         A24        0.00199   0.00199   0.000001000.00000
  41         A25       -0.00544  -0.00544   0.000001000.00000
  42         A26        0.00020   0.00020   0.000001000.00000
  43         A27        0.00174   0.00174   0.000001000.00000
  44         A28        0.00090   0.00090   0.000001000.00000
  45         A29        0.00085   0.00085   0.000001000.00000
  46         D1         0.04334   0.04334   0.000001000.00000
  47         D2        -0.27164  -0.27164   0.000001000.00000
  48         D3        -0.04131  -0.04131   0.000001000.00000
  49         D4        -0.02102  -0.02102   0.000001000.00000
  50         D5        -0.01810  -0.01810   0.000001000.00000
  51         D6        -0.03961  -0.03961   0.000001000.00000
  52         D7         0.30362   0.30362   0.000001000.00000
  53         D8         0.30654   0.30654   0.000001000.00000
  54         D9         0.28503   0.28503   0.000001000.00000
  55         D10        0.04775   0.04775   0.000001000.00000
  56         D11        0.05067   0.05067   0.000001000.00000
  57         D12        0.02916   0.02916   0.000001000.00000
  58         D13       -0.01697  -0.01697   0.000001000.00000
  59         D14       -0.01405  -0.01405   0.000001000.00000
  60         D15       -0.03556  -0.03556   0.000001000.00000
  61         D16        0.06833   0.06833   0.000001000.00000
  62         D17        0.07956   0.07956   0.000001000.00000
  63         D18        0.08720   0.08720   0.000001000.00000
  64         D19        0.02289   0.02289   0.000001000.00000
  65         D20        0.02611   0.02611   0.000001000.00000
  66         D21        0.02983   0.02983   0.000001000.00000
  67         D22       -0.00102  -0.00102   0.000001000.00000
  68         D23        0.00220   0.00220   0.000001000.00000
  69         D24        0.00592   0.00592   0.000001000.00000
  70         D25       -0.00570  -0.00570   0.000001000.00000
  71         D26       -0.00248  -0.00248   0.000001000.00000
  72         D27        0.00124   0.00124   0.000001000.00000
  73         D28        0.00664   0.00664   0.000001000.00000
  74         D29        0.00658   0.00658   0.000001000.00000
  75         D30        0.00400   0.00400   0.000001000.00000
  76         D31        0.01579   0.01579   0.000001000.00000
  77         D32        0.01574   0.01574   0.000001000.00000
  78         D33        0.01315   0.01315   0.000001000.00000
  79         D34        0.01981   0.01981   0.000001000.00000
  80         D35        0.01975   0.01975   0.000001000.00000
  81         D36        0.01716   0.01716   0.000001000.00000
 RFO step:  Lambda0=6.590572164D-02 Lambda=-8.63472676D-03.
 Linear search not attempted -- option 19 set.
 Maximum step size (   0.300) exceeded in Quadratic search.
    -- Step size scaled by   0.078
 Iteration  1 RMS(Cart)=  0.03333136 RMS(Int)=  0.00118467
 Iteration  2 RMS(Cart)=  0.00095216 RMS(Int)=  0.00052449
 Iteration  3 RMS(Cart)=  0.00000081 RMS(Int)=  0.00052449
 Variable       Old X    -DE/DX   Delta X   Delta X   Delta X     New X
                                 (Linear)    (Quad)   (Total)
    R1        2.06146  -0.01223   0.00000  -0.00192  -0.00192   2.05954
    R2        2.04420  -0.02198   0.00000  -0.00267  -0.00224   2.04196
    R3        2.82616  -0.00288   0.00000   0.00144   0.00136   2.82752
    R4        5.11305   0.00143   0.00000  -0.19520  -0.19544   4.91761
    R5        3.99022  -0.01068   0.00000   0.15675   0.15606   4.14628
    R6        3.59869   0.00449   0.00000  -0.02802  -0.02746   3.57123
    R7        2.07483  -0.00615   0.00000  -0.00075  -0.00075   2.07408
    R8        2.06326  -0.00664   0.00000  -0.00030  -0.00020   2.06306
    R9        2.86372   0.00847   0.00000   0.00098   0.00098   2.86470
   R10        5.26391   0.00106   0.00000   0.03098   0.03121   5.29512
   R11        2.06907  -0.00916   0.00000  -0.00090  -0.00090   2.06817
   R12        2.07324  -0.01473   0.00000  -0.00130  -0.00130   2.07194
   R13        2.86109   0.00752   0.00000   0.00093   0.00093   2.86202
   R14        2.06834  -0.00487   0.00000  -0.00067  -0.00067   2.06767
   R15        2.06803  -0.00429   0.00000  -0.00003  -0.00003   2.06800
   R16        2.06428  -0.00495   0.00000  -0.00052  -0.00052   2.06376
    A1        2.03248  -0.00104   0.00000   0.00150  -0.00007   2.03240
    A2        2.08953  -0.00668   0.00000  -0.00331  -0.00517   2.08436
    A3        1.82601  -0.00531   0.00000  -0.00105  -0.00123   1.82478
    A4        1.96866  -0.00948   0.00000   0.00594   0.00525   1.97391
    A5        2.16051   0.00783   0.00000  -0.00225  -0.00504   2.15547
    A6        1.38162  -0.00072   0.00000   0.06117   0.06149   1.44310
    A7        1.11711   0.00760   0.00000  -0.07980  -0.07955   1.03756
    A8        1.55043   0.00496   0.00000   0.03963   0.04013   1.59056
    A9        1.60772   0.00705   0.00000  -0.02179  -0.02044   1.58728
   A10        1.48864  -0.00267   0.00000   0.09906   0.10056   1.58920
   A11        1.85602  -0.00351   0.00000  -0.00734  -0.00738   1.84863
   A12        1.91923  -0.00944   0.00000   0.00423   0.00425   1.92348
   A13        1.95685   0.01599   0.00000   0.00441   0.00445   1.96130
   A14        1.89047   0.00198   0.00000  -0.00157  -0.00155   1.88891
   A15        1.87399  -0.00021   0.00000  -0.00088  -0.00086   1.87313
   A16        1.96239  -0.00487   0.00000   0.00031   0.00023   1.96262
   A17        1.64342   0.00753   0.00000  -0.05330  -0.05281   1.59060
   A18        1.89504   0.00197   0.00000   0.00221   0.00221   1.89725
   A19        1.87868  -0.00130   0.00000  -0.00474  -0.00474   1.87394
   A20        1.95106  -0.00040   0.00000   0.00014   0.00014   1.95119
   A21        1.88328   0.00007   0.00000   0.00034   0.00034   1.88362
   A22        1.95645  -0.00365   0.00000  -0.00083  -0.00083   1.95562
   A23        1.89657   0.00337   0.00000   0.00270   0.00270   1.89927
   A24        1.93318   0.00024   0.00000  -0.00063  -0.00063   1.93254
   A25        1.93585   0.00411   0.00000   0.00308   0.00308   1.93893
   A26        1.95666  -0.00220   0.00000  -0.00071  -0.00071   1.95595
   A27        1.87806  -0.00143   0.00000  -0.00076  -0.00076   1.87730
   A28        1.87079   0.00069   0.00000  -0.00029  -0.00029   1.87050
   A29        1.88612  -0.00154   0.00000  -0.00081  -0.00081   1.88531
    D1        1.81198  -0.00781   0.00000  -0.02488  -0.02435   1.78764
    D2       -1.29026  -0.01069   0.00000   0.09554   0.09604  -1.19423
    D3       -2.70738  -0.01400   0.00000   0.00252   0.00349  -2.70390
    D4       -0.98154   0.00134   0.00000   0.00647   0.00643  -0.97511
    D5        1.06155  -0.00314   0.00000   0.00269   0.00265   1.06420
    D6       -3.02475  -0.00486   0.00000   0.00961   0.00957  -3.01518
    D7        2.11949   0.00444   0.00000  -0.11757  -0.11724   2.00225
    D8       -2.12060  -0.00004   0.00000  -0.12135  -0.12102  -2.24162
    D9        0.07627  -0.00176   0.00000  -0.11443  -0.11410  -0.03782
   D10       -2.83522   0.00554   0.00000  -0.01516  -0.01505  -2.85026
   D11       -0.79212   0.00107   0.00000  -0.01893  -0.01883  -0.81095
   D12        1.40476  -0.00066   0.00000  -0.01202  -0.01190   1.39285
   D13        1.07576  -0.00767   0.00000  -0.00203  -0.00236   1.07339
   D14        3.11885  -0.01214   0.00000  -0.00581  -0.00614   3.11271
   D15       -0.96746  -0.01387   0.00000   0.00111   0.00078  -0.96668
   D16        0.76582  -0.00032   0.00000  -0.02736  -0.02721   0.73861
   D17        2.78730  -0.00853   0.00000  -0.03471  -0.03461   2.75269
   D18       -1.42791  -0.01043   0.00000  -0.03664  -0.03654  -1.46445
   D19       -1.07969   0.00163   0.00000  -0.00794  -0.00796  -1.08765
   D20        0.95475   0.00205   0.00000  -0.00892  -0.00895   0.94580
   D21        3.03624   0.00513   0.00000  -0.00855  -0.00857   3.02766
   D22       -3.11210  -0.00281   0.00000  -0.00094  -0.00093  -3.11303
   D23       -1.07766  -0.00238   0.00000  -0.00192  -0.00192  -1.07958
   D24        1.00383   0.00070   0.00000  -0.00155  -0.00154   1.00228
   D25        1.09345  -0.00225   0.00000   0.00138   0.00140   1.09485
   D26        3.12788  -0.00183   0.00000   0.00040   0.00041   3.12830
   D27       -1.07381   0.00126   0.00000   0.00077   0.00079  -1.07302
   D28       -1.11543  -0.00050   0.00000  -0.00313  -0.00313  -1.11856
   D29        0.96879   0.00054   0.00000  -0.00249  -0.00249   0.96630
   D30        3.07897  -0.00007   0.00000  -0.00186  -0.00186   3.07711
   D31        3.03531  -0.00013   0.00000  -0.00550  -0.00550   3.02981
   D32       -1.16365   0.00091   0.00000  -0.00486  -0.00486  -1.16851
   D33        0.94653   0.00031   0.00000  -0.00423  -0.00423   0.94230
   D34        0.95546  -0.00018   0.00000  -0.00718  -0.00718   0.94828
   D35        3.03968   0.00086   0.00000  -0.00654  -0.00654   3.03315
   D36       -1.13332   0.00025   0.00000  -0.00591  -0.00591  -1.13923
         Item               Value     Threshold  Converged?
 Maximum Force            0.021978     0.000450     NO 
 RMS     Force            0.006402     0.000300     NO 
 Maximum Displacement     0.167255     0.001800     NO 
 RMS     Displacement     0.033277     0.001200     NO 
 Predicted change in Energy= 8.284543D-03
 GradGradGradGradGradGradGradGradGradGradGradGradGradGradGradGradGradGrad

                          Input orientation:                          
 ---------------------------------------------------------------------
 Center     Atomic      Atomic             Coordinates (Angstroms)
 Number     Number       Type             X           Y           Z
 ---------------------------------------------------------------------
      1          6           0       -0.731244    0.653106    0.738942
      2          1           0       -1.327898    0.898976    1.617208
      3          1           0       -0.952775    1.204965   -0.163266
      4          6           0        0.449875   -0.254063    0.883113
      5          1           0        1.090849    0.205286    1.646517
      6          1           0        0.131563   -1.232468    1.248159
      7          6           0        1.263826   -0.348770   -0.392258
      8          1           0        0.635279   -0.777962   -1.178705
      9          1           0        1.525866    0.673408   -0.689973
     10          6           0        2.538840   -1.140248   -0.188152
     11          1           0        3.200988   -0.632108    0.519345
     12          1           0        2.324763   -2.134558    0.215696
     13         17           0       -2.083246   -1.214204   -0.468175
     14          9           0        0.566535    2.299567    0.091578
     15          1           0        3.096832   -1.266396   -1.118424
 ---------------------------------------------------------------------
                    Distance matrix (angstroms):
                    1          2          3          4          5
     1  C    0.000000
     2  H    1.089862   0.000000
     3  H    1.080557   1.845111   0.000000
     4  C    1.496257   2.242515   2.278399   0.000000
     5  H    2.084289   2.516427   2.907073   1.097558   0.000000
     6  H    2.135212   2.609460   3.018111   1.091722   1.773712
     7  C    2.502734   3.508826   2.716588   1.515935   2.119788
     8  H    2.755488   3.805695   2.735879   2.135402   3.025921
     9  H    2.671471   3.676675   2.589138   2.119566   2.422306
    10  C    3.843056   4.729633   4.206189   2.509324   2.696878
    11  H    4.142759   4.905134   4.592880   2.800691   2.534647
    12  H    4.169417   4.950606   4.694495   2.738049   3.007435
    13  Cl   2.602285   3.063478   2.687622   3.027301   4.069613
    14  F    2.194116   2.806791   1.889815   2.676035   2.660593
    15  H    4.667811   5.634781   4.839346   3.469488   3.719504
                    6          7          8          9         10
     6  H    0.000000
     7  C    2.180346   0.000000
     8  H    2.519915   1.094430   0.000000
     9  H    3.054963   1.096424   1.771575   0.000000
    10  C    2.804724   1.514516   2.176234   2.137122   0.000000
    11  H    3.211382   2.159606   3.080180   2.443942   1.094165
    12  H    2.586479   2.164309   2.576638   3.056656   1.094338
    13  Cl   2.802055   3.457981   2.843508   4.078966   4.631152
    14  F    3.741945   2.781007   3.330095   2.043412   3.974993
    15  H    3.794032   2.174687   2.510268   2.532655   1.092096
                   11         12         13         14         15
    11  H    0.000000
    12  H    1.765597   0.000000
    13  Cl   5.407140   4.554698   0.000000
    14  F    3.964600   4.771608   4.436356   0.000000
    15  H    1.759390   1.769088   5.220992   4.536805   0.000000
 Stoichiometry    C4H9ClF(1-)
 Framework group  C1[X(C4H9ClF)]
 Deg. of freedom    39
 Full point group                 C1      NOp   1
 Largest Abelian subgroup         C1      NOp   1
 Largest concise Abelian subgroup C1      NOp   1
                         Standard orientation:                         
 ---------------------------------------------------------------------
 Center     Atomic      Atomic             Coordinates (Angstroms)
 Number     Number       Type             X           Y           Z
 ---------------------------------------------------------------------
      1          6           0       -0.440890    1.111689    0.545938
      2          1           0       -0.880871    1.679986    1.365239
      3          1           0       -0.579476    1.513607   -0.447470
      4          6           0        0.467277   -0.037186    0.852704
      5          1           0        1.264480    0.370433    1.487486
      6          1           0       -0.067695   -0.798856    1.423248
      7          6           0        1.124798   -0.601140   -0.391354
      8          1           0        0.345672   -0.988328   -1.055300
      9          1           0        1.622475    0.230442   -0.904126
     10          6           0        2.158412   -1.654993   -0.052542
     11          1           0        2.984428   -1.218290    0.516829
     12          1           0        1.722524   -2.452517    0.556993
     13         17           0       -2.327283   -0.514122   -0.209144
     14          9           0        1.189560    2.178185   -0.463201
     15          1           0        2.588651   -2.110284   -0.947125
 ---------------------------------------------------------------------
 Rotational constants (GHZ):      2.5629924      1.4538973      1.0401054
 Standard basis: Aug-CC-pVTZ (5D, 7F)
 There are   559 symmetry adapted cartesian basis functions of A   symmetry.
 There are   487 symmetry adapted basis functions of A   symmetry.
   487 basis functions,   717 primitive gaussians,   559 cartesian basis functions
    30 alpha electrons       30 beta electrons
       nuclear repulsion energy       285.7224944233 Hartrees.
 NAtoms=   15 NActive=   15 NUniq=   15 SFac= 1.00D+00 NAtFMM=   60 NAOKFM=F Big=F
 Integral buffers will be    131072 words long.
 Raffenetti 1 integral format.
 Two-electron integral symmetry is turned on.
 One-electron integrals computed using PRISM.
 NBasis=   487 RedAO= T EigKep=  5.40D-06  NBF=   487
 NBsUse=   487 1.00D-06 EigRej= -1.00D+00 NBFU=   487
 Initial guess from the checkpoint file:  "20170630_augccpVTZ_m06_chloroflourobutane_transition.chk"
 B after Tr=     0.000000    0.000000    0.000000
         Rot=    0.999843   -0.006970    0.002359   -0.016094 Ang=  -2.03 deg.
 ExpMin= 2.53D-02 ExpMax= 4.56D+05 ExpMxC= 1.44D+03 IAcc=3 IRadAn=         5 AccDes= 0.00D+00
 Harris functional with IExCor=  205 and IRadAn=       5 diagonalized for initial guess.
 HarFok:  IExCor=  205 AccDes= 0.00D+00 IRadAn=         5 IDoV= 1 UseB2=F ITyADJ=14
 ICtDFT=  3500011 ScaDFX=  1.000000  1.000000  1.000000  1.000000
 FoFCou: FMM=F IPFlag=           0 FMFlag=      100000 FMFlg1=           0
         NFxFlg=           0 DoJE=T BraDBF=F KetDBF=T FulRan=T
         wScrn=  0.000000 ICntrl=     500 IOpCl=  0 I1Cent=   200000004 NGrid=           0
         NMat0=    1 NMatS0=      1 NMatT0=    0 NMatD0=    1 NMtDS0=    0 NMtDT0=    0
 Petite list used in FoFCou.
 Requested convergence on RMS density matrix=1.00D-08 within 128 cycles.
 Requested convergence on MAX density matrix=1.00D-06.
 Requested convergence on             energy=1.00D-06.
 No special actions if energy rises.
 Initial convergence to 1.0D-05 achieved.  Increase integral accuracy.
 SCF Done:  E(RHF) =  -715.734336159     A.U. after   12 cycles
            NFock= 12  Conv=0.84D-08     -V/T= 2.0004
 Calling FoFJK, ICntrl=      2127 FMM=F ISym2X=0 I1Cent= 0 IOpClX= 0 NMat=1 NMatS=1 NMatT=0.
 ***** Axes restored to original set *****
 -------------------------------------------------------------------
 Center     Atomic                   Forces (Hartrees/Bohr)
 Number     Number              X              Y              Z
 -------------------------------------------------------------------
      1        6           0.000961777    0.005687347   -0.022046526
      2        1           0.006528684   -0.004028144   -0.008714213
      3        1           0.000106773   -0.018359851    0.012379512
      4        6           0.005111793    0.009115344    0.003684254
      5        1          -0.007537280   -0.001346853   -0.000979423
      6        1          -0.000562446    0.008374624   -0.001750714
      7        6           0.001587052    0.008772161   -0.016029124
      8        1           0.007089074    0.000190331    0.006257179
      9        1          -0.006219908   -0.012532778    0.003298025
     10        6           0.005824598   -0.009311944    0.003327016
     11        1          -0.002879884   -0.002605393   -0.002762472
     12        1           0.003203112    0.002700988   -0.002610724
     13       17          -0.006682295    0.003778925    0.007357255
     14        9          -0.003219648    0.009123980    0.015089550
     15        1          -0.003311401    0.000441263    0.003500403
 -------------------------------------------------------------------
 Cartesian Forces:  Max     0.022046526 RMS     0.007701953

 GradGradGradGradGradGradGradGradGradGradGradGradGradGradGradGradGradGrad
 Berny optimization.
 FormGI is forming the generalized inverse of G from B-inverse, IUseBI=4.
 Internal  Forces:  Max     0.019599484 RMS     0.005857458
 Search for a saddle point.
 Step number   2 out of a maximum of   91
 All quantities printed in internal units (Hartrees-Bohrs-Radians)
 Update second derivatives using D2CorX and points    1    2
 ITU=  0  0
 LST/QST climbing along tangent vector
     Eigenvalues ---   -0.02294   0.00563   0.00584   0.01069   0.02608
     Eigenvalues ---    0.03251   0.03798   0.04065   0.04795   0.05047
     Eigenvalues ---    0.05313   0.05537   0.05689   0.05901   0.06309
     Eigenvalues ---    0.06763   0.08262   0.09374   0.12124   0.12395
     Eigenvalues ---    0.15881   0.16000   0.16000   0.16000   0.17208
     Eigenvalues ---    0.18050   0.21942   0.30812   0.30950   0.31870
     Eigenvalues ---    0.33909   0.34004   0.34252   0.34267   0.34295
     Eigenvalues ---    0.34314   0.34540   0.34712   0.349621000.00000
     Eigenvalues --- 1000.000001000.000001000.000001000.000001000.00000
     Eigenvalues --- 1000.000001000.000001000.000001000.000001000.00000
     Eigenvalues --- 1000.000001000.000001000.000001000.000001000.00000
     Eigenvalues --- 1000.000001000.000001000.000001000.000001000.00000
     Eigenvalues --- 1000.000001000.000001000.000001000.000001000.00000
     Eigenvalues --- 1000.000001000.000001000.000001000.000001000.00000
     Eigenvalues --- 1000.000001000.000001000.000001000.000001000.00000
     Eigenvalues --- 1000.000001000.000001000.000001000.000001000.00000
     Eigenvalues --- 1000.00000
 Eigenvectors required to have negative eigenvalues:
                          R4        R5        D8        D7        D9
   1                    0.50751  -0.41813   0.30430   0.30126   0.28711
                          A10       D2        A7        A6        A17
   1                   -0.27644  -0.27466   0.21697  -0.15517   0.13866
 QST in optimization variable space.
                        Tangent   TS vect  // Eig F  Eigenval
   1         R1         0.00141   0.00141   0.00486  -0.02294
   2         R2        -0.00166  -0.00166   0.00017   0.00563
   3         R3        -0.00464  -0.00464   0.00049   0.00584
   4         R4         0.50751   0.50751  -0.00257   0.01069
   5         R5        -0.41813  -0.41813   0.00170   0.02608
   6         R6         0.07907   0.07907  -0.01330   0.03251
   7         R7         0.00009   0.00009  -0.00195   0.03798
   8         R8        -0.00204  -0.00204   0.00499   0.04065
   9         R9         0.00023   0.00023  -0.00376   0.04795
  10         R10       -0.07260  -0.07260  -0.00010   0.05047
  11         R11       -0.00039  -0.00039   0.00121   0.05313
  12         R12       -0.00104  -0.00104  -0.00030   0.05537
  13         R13        0.00004   0.00004   0.00067   0.05689
  14         R14        0.00030   0.00030  -0.00253   0.05901
  15         R15       -0.00120  -0.00120  -0.00244   0.06309
  16         R16       -0.00011  -0.00011   0.00304   0.06763
  17         A1         0.00836   0.00836  -0.00021   0.08262
  18         A2         0.01235   0.01235   0.00435   0.09374
  19         A3        -0.00672  -0.00672  -0.00305   0.12124
  20         A4        -0.03419  -0.03419   0.00074   0.12395
  21         A5         0.02210   0.02210  -0.00078   0.15881
  22         A6        -0.15517  -0.15517   0.00198   0.16000
  23         A7         0.21697   0.21697   0.00024   0.16000
  24         A8        -0.09984  -0.09984  -0.00132   0.16000
  25         A9         0.05971   0.05971   0.00970   0.17208
  26         A10       -0.27644  -0.27644   0.00623   0.18050
  27         A11        0.01426   0.01426  -0.00018   0.21942
  28         A12       -0.01586  -0.01586   0.00390   0.30812
  29         A13       -0.00163  -0.00163   0.00359   0.30950
  30         A14        0.00264   0.00264  -0.00196   0.31870
  31         A15        0.00529   0.00529  -0.00281   0.33909
  32         A16       -0.00271  -0.00271  -0.00702   0.34004
  33         A17        0.13866   0.13866  -0.00447   0.34252
  34         A18       -0.00523  -0.00523  -0.00267   0.34267
  35         A19        0.01226   0.01226  -0.00252   0.34295
  36         A20       -0.00067  -0.00067  -0.00186   0.34314
  37         A21       -0.00050  -0.00050  -0.00236   0.34540
  38         A22        0.00097   0.00097  -0.00583   0.34712
  39         A23       -0.00627  -0.00627  -0.01010   0.34962
  40         A24        0.00176   0.00176   0.000001000.00000
  41         A25       -0.00511  -0.00511   0.000001000.00000
  42         A26        0.00015   0.00015   0.000001000.00000
  43         A27        0.00175   0.00175   0.000001000.00000
  44         A28        0.00044   0.00044   0.000001000.00000
  45         A29        0.00126   0.00126   0.000001000.00000
  46         D1         0.03641   0.03641   0.000001000.00000
  47         D2        -0.27466  -0.27466   0.000001000.00000
  48         D3        -0.04590  -0.04590   0.000001000.00000
  49         D4        -0.01827  -0.01827   0.000001000.00000
  50         D5        -0.01523  -0.01523   0.000001000.00000
  51         D6        -0.03242  -0.03242   0.000001000.00000
  52         D7         0.30126   0.30126   0.000001000.00000
  53         D8         0.30430   0.30430   0.000001000.00000
  54         D9         0.28711   0.28711   0.000001000.00000
  55         D10        0.04677   0.04677   0.000001000.00000
  56         D11        0.04980   0.04980   0.000001000.00000
  57         D12        0.03261   0.03261   0.000001000.00000
  58         D13       -0.01666  -0.01666   0.000001000.00000
  59         D14       -0.01363  -0.01363   0.000001000.00000
  60         D15       -0.03081  -0.03081   0.000001000.00000
  61         D16        0.06767   0.06767   0.000001000.00000
  62         D17        0.07763   0.07763   0.000001000.00000
  63         D18        0.08427   0.08427   0.000001000.00000
  64         D19        0.01903   0.01903   0.000001000.00000
  65         D20        0.02228   0.02228   0.000001000.00000
  66         D21        0.02198   0.02198   0.000001000.00000
  67         D22       -0.00060  -0.00060   0.000001000.00000
  68         D23        0.00265   0.00265   0.000001000.00000
  69         D24        0.00236   0.00236   0.000001000.00000
  70         D25       -0.00568  -0.00568   0.000001000.00000
  71         D26       -0.00243  -0.00243   0.000001000.00000
  72         D27       -0.00272  -0.00272   0.000001000.00000
  73         D28        0.00084   0.00084   0.000001000.00000
  74         D29        0.00086   0.00086   0.000001000.00000
  75         D30       -0.00102  -0.00102   0.000001000.00000
  76         D31        0.00744   0.00744   0.000001000.00000
  77         D32        0.00745   0.00745   0.000001000.00000
  78         D33        0.00558   0.00558   0.000001000.00000
  79         D34        0.01157   0.01157   0.000001000.00000
  80         D35        0.01158   0.01158   0.000001000.00000
  81         D36        0.00971   0.00971   0.000001000.00000
 RFO step:  Lambda0=9.879695081D-04 Lambda=-7.82951956D-03.
 Linear search not attempted -- option 19 set.
 Iteration  1 RMS(Cart)=  0.07326780 RMS(Int)=  0.00493355
 Iteration  2 RMS(Cart)=  0.00405976 RMS(Int)=  0.00039257
 Iteration  3 RMS(Cart)=  0.00001196 RMS(Int)=  0.00039246
 Iteration  4 RMS(Cart)=  0.00000000 RMS(Int)=  0.00039246
 Variable       Old X    -DE/DX   Delta X   Delta X   Delta X     New X
                                 (Linear)    (Quad)   (Total)
    R1        2.05954  -0.01151   0.00000  -0.01647  -0.01647   2.04307
    R2        2.04196  -0.01960   0.00000  -0.03110  -0.03115   2.01081
    R3        2.82752  -0.00343   0.00000  -0.00163  -0.00157   2.82594
    R4        4.91761  -0.00238   0.00000  -0.14942  -0.14923   4.76838
    R5        4.14628  -0.00466   0.00000   0.06626   0.06566   4.21194
    R6        3.57123   0.00590   0.00000   0.03059   0.03131   3.60254
    R7        2.07408  -0.00565   0.00000  -0.00815  -0.00815   2.06593
    R8        2.06306  -0.00667   0.00000  -0.00906  -0.00904   2.05401
    R9        2.86470   0.00784   0.00000   0.01235   0.01235   2.87705
   R10        5.29512   0.00062   0.00000   0.04261   0.04240   5.33752
   R11        2.06817  -0.00864   0.00000  -0.01224  -0.01224   2.05593
   R12        2.07194  -0.01407   0.00000  -0.01998  -0.01998   2.05196
   R13        2.86202   0.00717   0.00000   0.01127   0.01127   2.87329
   R14        2.06767  -0.00474   0.00000  -0.00680  -0.00680   2.06087
   R15        2.06800  -0.00404   0.00000  -0.00552  -0.00552   2.06248
   R16        2.06376  -0.00472   0.00000  -0.00665  -0.00665   2.05711
    A1        2.03240  -0.00132   0.00000   0.02309   0.02226   2.05467
    A2        2.08436  -0.00587   0.00000  -0.01906  -0.01938   2.06498
    A3        1.82478  -0.00665   0.00000  -0.07246  -0.07242   1.75236
    A4        1.97391  -0.00763   0.00000  -0.07726  -0.07666   1.89726
    A5        2.15547   0.00749   0.00000  -0.01197  -0.01240   2.14307
    A6        1.44310  -0.00006   0.00000   0.06057   0.06141   1.50452
    A7        1.03756   0.00470   0.00000  -0.01355  -0.01343   1.02413
    A8        1.59056   0.00594   0.00000   0.05669   0.05768   1.64824
    A9        1.58728   0.00714   0.00000   0.03604   0.03620   1.62348
   A10        1.58920   0.00010   0.00000   0.03153   0.03123   1.62043
   A11        1.84863  -0.00291   0.00000  -0.01596  -0.01703   1.83160
   A12        1.92348  -0.00871   0.00000  -0.02721  -0.02700   1.89648
   A13        1.96130   0.01432   0.00000   0.04902   0.04856   2.00986
   A14        1.88891   0.00161   0.00000  -0.00897  -0.00939   1.87952
   A15        1.87313  -0.00009   0.00000   0.02410   0.02398   1.89712
   A16        1.96262  -0.00427   0.00000  -0.02116  -0.02050   1.94212
   A17        1.59060   0.00658   0.00000  -0.01534  -0.01523   1.57537
   A18        1.89725   0.00192   0.00000   0.00197   0.00185   1.89910
   A19        1.87394  -0.00137   0.00000  -0.00158  -0.00165   1.87229
   A20        1.95119  -0.00036   0.00000  -0.00125  -0.00134   1.94985
   A21        1.88362   0.00011   0.00000   0.00199   0.00209   1.88571
   A22        1.95562  -0.00356   0.00000  -0.02046  -0.02044   1.93518
   A23        1.89927   0.00335   0.00000   0.02020   0.02024   1.91951
   A24        1.93254   0.00022   0.00000   0.00125   0.00123   1.93377
   A25        1.93893   0.00383   0.00000   0.01297   0.01296   1.95189
   A26        1.95595  -0.00213   0.00000  -0.00788  -0.00787   1.94809
   A27        1.87730  -0.00131   0.00000  -0.00128  -0.00132   1.87597
   A28        1.87050   0.00069   0.00000   0.00084   0.00083   1.87133
   A29        1.88531  -0.00143   0.00000  -0.00625  -0.00622   1.87908
    D1        1.78764  -0.00688   0.00000  -0.11095  -0.11237   1.67527
    D2       -1.19423  -0.00842   0.00000  -0.05190  -0.05223  -1.24646
    D3       -2.70390  -0.01431   0.00000  -0.16322  -0.16285  -2.86675
    D4       -0.97511   0.00024   0.00000  -0.02141  -0.02199  -0.99710
    D5        1.06420  -0.00389   0.00000  -0.05465  -0.05480   1.00940
    D6       -3.01518  -0.00546   0.00000  -0.06666  -0.06697  -3.08215
    D7        2.00225   0.00226   0.00000  -0.07848  -0.07885   1.92339
    D8       -2.24162  -0.00187   0.00000  -0.11171  -0.11166  -2.35328
    D9       -0.03782  -0.00344   0.00000  -0.12372  -0.12383  -0.16166
   D10       -2.85026   0.00559   0.00000   0.03291   0.03223  -2.81803
   D11       -0.81095   0.00146   0.00000  -0.00033  -0.00058  -0.81153
   D12        1.39285  -0.00011   0.00000  -0.01234  -0.01275   1.38010
   D13        1.07339  -0.00606   0.00000  -0.09603  -0.09560   0.97779
   D14        3.11271  -0.01019   0.00000  -0.12926  -0.12841   2.98430
   D15       -0.96668  -0.01176   0.00000  -0.14127  -0.14058  -1.10726
   D16        0.73861  -0.00180   0.00000  -0.03601  -0.03619   0.70241
   D17        2.75269  -0.00907   0.00000  -0.07480  -0.07518   2.67751
   D18       -1.46445  -0.01068   0.00000  -0.06346  -0.06377  -1.52823
   D19       -1.08765   0.00149   0.00000   0.00563   0.00598  -1.08167
   D20        0.94580   0.00188   0.00000   0.00815   0.00852   0.95432
   D21        3.02766   0.00490   0.00000   0.03115   0.03152   3.05918
   D22       -3.11303  -0.00278   0.00000  -0.01662  -0.01708  -3.13011
[...]
    11  H    3.117836   2.167109   3.055395   2.502020   1.085595
    12  H    2.603811   2.168667   2.506271   3.056251   1.086225
    13  Cl   2.805602   3.544747   3.070995   4.090942   4.782440
    14  F    3.577249   3.446603   4.135188   3.067878   4.538149
    15  H    3.775418   2.170737   2.492228   2.493175   1.085922
                   11         12         13         14         15
    11  H    0.000000
    12  H    1.753843   0.000000
    13  Cl   5.455289   4.738241   0.000000
    14  F    4.369046   5.177637   4.341670   0.000000
    15  H    1.754015   1.753251   5.448241   5.286118   0.000000
 Stoichiometry    C4H9ClF(1-)
 Framework group  C1[X(C4H9ClF)]
 Deg. of freedom    39
 Full point group                 C1      NOp   1
 Largest Abelian subgroup         C1      NOp   1
 Largest concise Abelian subgroup C1      NOp   1
                         Standard orientation:                         
 ---------------------------------------------------------------------
 Center     Atomic      Atomic             Coordinates (Angstroms)
 Number     Number       Type             X           Y           Z
 ---------------------------------------------------------------------
      1          6           0       -0.701268    0.765289    0.052656
      2          1           0       -1.317109    1.318742    0.715112
      3          1           0       -0.807121    0.972370   -0.980814
      4          6           0        0.539968    0.114221    0.581846
      5          1           0        1.107195    0.926919    1.012550
      6          1           0        0.269643   -0.580576    1.366686
      7          6           0        1.367674   -0.583058   -0.489679
      8          1           0        0.768398   -1.351421   -0.965436
      9          1           0        1.624360    0.146973   -1.249748
     10          6           0        2.642877   -1.203416    0.072609
     11          1           0        3.271969   -0.449815    0.536122
     12          1           0        2.415403   -1.952660    0.825453
     13         17           0       -2.130766   -0.936810   -0.041339
     14          9           0        0.285591    2.669262   -0.128307
     15          1           0        3.224460   -1.686334   -0.706992
 ---------------------------------------------------------------------
 Rotational constants (GHZ):      2.2952177      1.5438308      0.9795072

 **********************************************************************

            Population analysis using the SCF density.

 **********************************************************************

 Orbital symmetries:
       Occupied  (A) (A) (A) (A) (A) (A) (A) (A) (A) (A) (A) (A)
                 (A) (A) (A) (A) (A) (A) (A) (A) (A) (A) (A) (A)
                 (A) (A) (A) (A) (A) (A)
       Virtual   (A) (A) (A) (A) (A) (A) (A) (A) (A) (A) (A) (A)
                 (A) (A) (A) (A) (A) (A) (A) (A) (A) (A) (A) (A)
                 (A) (A) (A) (A) (A) (A) (A) (A) (A) (A) (A) (A)
                 (A) (A) (A) (A) (A) (A) (A) (A) (A) (A) (A) (A)
                 (A) (A) (A) (A) (A) (A) (A) (A) (A) (A) (A) (A)
                 (A) (A) (A) (A) (A) (A) (A) (A) (A) (A) (A) (A)
                 (A) (A) (A) (A) (A) (A) (A) (A) (A) (A) (A) (A)
                 (A) (A) (A) (A) (A) (A) (A) (A) (A) (A) (A) (A)
                 (A) (A) (A) (A) (A) (A) (A) (A) (A) (A) (A) (A)
                 (A) (A) (A) (A) (A) (A) (A) (A) (A) (A) (A) (A)
                 (A) (A) (A) (A) (A) (A) (A) (A) (A) (A) (A) (A)
                 (A) (A) (A) (A) (A) (A) (A) (A) (A) (A) (A) (A)
                 (A) (A) (A) (A) (A) (A) (A) (A) (A) (A) (A) (A)
                 (A) (A) (A) (A) (A) (A) (A) (A) (A) (A) (A) (A)
                 (A) (A) (A) (A) (A) (A) (A) (A) (A) (A) (A) (A)
                 (A) (A) (A) (A) (A) (A) (A) (A) (A) (A) (A) (A)
                 (A) (A) (A) (A) (A) (A) (A) (A) (A) (A) (A) (A)
                 (A) (A) (A) (A) (A) (A) (A) (A) (A) (A) (A) (A)
                 (A) (A) (A) (A) (A) (A) (A) (A) (A) (A) (A) (A)
                 (A) (A) (A) (A) (A) (A) (A) (A) (A) (A) (A) (A)
                 (A) (A) (A) (A) (A) (A) (A) (A) (A) (A) (A) (A)
                 (A) (A) (A) (A) (A) (A) (A) (A) (A) (A) (A) (A)
                 (A) (A) (A) (A) (A) (A) (A) (A) (A) (A) (A) (A)
                 (A) (A) (A) (A) (A) (A) (A) (A) (A) (A) (A) (A)
                 (A) (A) (A) (A) (A) (A) (A) (A) (A) (A) (A) (A)
                 (A) (A) (A) (A) (A) (A) (A) (A) (A) (A) (A) (A)
                 (A) (A) (A) (A) (A) (A) (A) (A) (A) (A) (A) (A)
                 (A) (A) (A) (A) (A) (A) (A) (A) (A) (A) (A) (A)
                 (A) (A) (A) (A) (A) (A) (A) (A) (A) (A) (A) (A)
                 (A) (A) (A) (A) (A) (A) (A) (A) (A) (A) (A) (A)
                 (A) (A) (A) (A) (A) (A) (A) (A) (A) (A) (A) (A)
                 (A) (A) (A) (A) (A) (A) (A) (A) (A) (A) (A) (A)
                 (A) (A) (A) (A) (A) (A) (A) (A) (A) (A) (A) (A)
                 (A) (A) (A) (A) (A) (A) (A) (A) (A) (A) (A) (A)
                 (A) (A) (A) (A) (A) (A) (A) (A) (A) (A) (A) (A)
                 (A) (A) (A) (A) (A) (A) (A) (A) (A) (A) (A) (A)
                 (A) (A) (A) (A) (A) (A) (A) (A) (A) (A) (A) (A)
                 (A) (A) (A) (A) (A) (A) (A) (A) (A) (A) (A) (A)
                 (A)
 The electronic state is 1-A.
 Alpha  occ. eigenvalues -- -104.60537 -25.92339 -11.16474 -11.10185 -11.09036
 Alpha  occ. eigenvalues --  -11.08441 -10.32994  -7.79622  -7.79562  -7.79561
 Alpha  occ. eigenvalues --   -1.18000  -0.95575  -0.88193  -0.82788  -0.73125
 Alpha  occ. eigenvalues --   -0.66524  -0.51378  -0.49359  -0.47736  -0.43046
 Alpha  occ. eigenvalues --   -0.41758  -0.36592  -0.35829  -0.34788  -0.29847
 Alpha  occ. eigenvalues --   -0.27800  -0.27434  -0.24627  -0.24497  -0.23496
 Alpha virt. eigenvalues --    0.10567   0.12051   0.12828   0.14214   0.14690
 Alpha virt. eigenvalues --    0.14980   0.15301   0.16421   0.16586   0.19392
 Alpha virt. eigenvalues --    0.19912   0.21051   0.21422   0.22952   0.23025
 Alpha virt. eigenvalues --    0.23884   0.25310   0.26049   0.26547   0.26651
 Alpha virt. eigenvalues --    0.27194   0.27481   0.28245   0.28756   0.29548
 Alpha virt. eigenvalues --    0.30908   0.31173   0.32535   0.34018   0.34439
 Alpha virt. eigenvalues --    0.36012   0.36702   0.38952   0.39197   0.40004
 Alpha virt. eigenvalues --    0.41375   0.42482   0.42718   0.43450   0.43650
 Alpha virt. eigenvalues --    0.45121   0.45446   0.46502   0.47036   0.47540
 Alpha virt. eigenvalues --    0.47616   0.47921   0.49092   0.49311   0.49439
 Alpha virt. eigenvalues --    0.49912   0.50285   0.50760   0.51682   0.52193
 Alpha virt. eigenvalues --    0.54093   0.54311   0.54808   0.55135   0.55877
 Alpha virt. eigenvalues --    0.56312   0.57698   0.58019   0.58138   0.58949
 Alpha virt. eigenvalues --    0.59677   0.60328   0.60834   0.62075   0.62546
 Alpha virt. eigenvalues --    0.63004   0.63587   0.63772   0.64541   0.64824
 Alpha virt. eigenvalues --    0.65448   0.66804   0.67837   0.68001   0.68653
 Alpha virt. eigenvalues --    0.69455   0.70224   0.71652   0.71962   0.72615
 Alpha virt. eigenvalues --    0.73513   0.74602   0.74865   0.76504   0.76820
 Alpha virt. eigenvalues --    0.77253   0.78826   0.80445   0.81581   0.83974
 Alpha virt. eigenvalues --    0.85170   0.86261   0.87328   0.89256   0.90658
 Alpha virt. eigenvalues --    0.91776   0.93811   0.94229   0.95280   0.95683
 Alpha virt. eigenvalues --    0.97089   0.97638   0.97852   0.99453   1.00495
 Alpha virt. eigenvalues --    1.01043   1.01538   1.02348   1.03117   1.03590
 Alpha virt. eigenvalues --    1.04075   1.04857   1.05487   1.06108   1.07521
 Alpha virt. eigenvalues --    1.08676   1.08825   1.09428   1.10489   1.11730
 Alpha virt. eigenvalues --    1.12298   1.12505   1.14204   1.14385   1.15373
 Alpha virt. eigenvalues --    1.15804   1.17457   1.17770   1.19149   1.20577
 Alpha virt. eigenvalues --    1.21218   1.22402   1.23131   1.23310   1.24706
 Alpha virt. eigenvalues --    1.25070   1.26180   1.26841   1.27722   1.28204
 Alpha virt. eigenvalues --    1.28935   1.29544   1.30735   1.31165   1.32572
 Alpha virt. eigenvalues --    1.32871   1.33123   1.33895   1.35430   1.36573
 Alpha virt. eigenvalues --    1.37217   1.37693   1.38516   1.39706   1.40075
 Alpha virt. eigenvalues --    1.41683   1.42049   1.42507   1.43857   1.44504
 Alpha virt. eigenvalues --    1.46346   1.47194   1.47651   1.49324   1.50786
 Alpha virt. eigenvalues --    1.51313   1.53142   1.53926   1.55025   1.57613
 Alpha virt. eigenvalues --    1.58082   1.60561   1.60893   1.61504   1.62635
 Alpha virt. eigenvalues --    1.63607   1.64240   1.66060   1.68504   1.69239
 Alpha virt. eigenvalues --    1.69718   1.71128   1.72592   1.73334   1.74324
 Alpha virt. eigenvalues --    1.76118   1.76149   1.76825   1.78869   1.79592
 Alpha virt. eigenvalues --    1.79950   1.80696   1.81857   1.83292   1.84357
 Alpha virt. eigenvalues --    1.85388   1.86036   1.87534   1.87862   1.88700
 Alpha virt. eigenvalues --    1.89226   1.89597   1.90074   1.92061   1.92575
 Alpha virt. eigenvalues --    1.94149   1.94806   1.97183   1.97757   1.98889
 Alpha virt. eigenvalues --    1.99714   2.01177   2.02242   2.04744   2.05468
 Alpha virt. eigenvalues --    2.07050   2.08765   2.09762   2.10064   2.10529
 Alpha virt. eigenvalues --    2.13604   2.14420   2.16034   2.16119   2.17724
 Alpha virt. eigenvalues --    2.19798   2.21045   2.21598   2.22993   2.24373
 Alpha virt. eigenvalues --    2.25633   2.26458   2.28922   2.31027   2.32962
 Alpha virt. eigenvalues --    2.34924   2.35768   2.36413   2.38570   2.40342
 Alpha virt. eigenvalues --    2.41667   2.42611   2.43801   2.45792   2.46117
 Alpha virt. eigenvalues --    2.49529   2.51508   2.54287   2.56152   2.56747
 Alpha virt. eigenvalues --    2.57979   2.60854   2.62753   2.64285   2.71445
 Alpha virt. eigenvalues --    2.74118   2.76344   2.79645   2.84158   2.87038
 Alpha virt. eigenvalues --    2.87638   2.92056   2.93275   2.96171   3.01682
 Alpha virt. eigenvalues --    3.05472   3.08475   3.15569   3.17555   3.22265
 Alpha virt. eigenvalues --    3.27403   3.29296   3.31021   3.33072   3.33581
 Alpha virt. eigenvalues --    3.34779   3.36754   3.37804   3.38468   3.39983
 Alpha virt. eigenvalues --    3.42535   3.44843   3.46421   3.48953   3.50567
 Alpha virt. eigenvalues --    3.53418   3.53993   3.54862   3.55522   3.56915
 Alpha virt. eigenvalues --    3.57898   3.58850   3.59858   3.63190   3.63602
 Alpha virt. eigenvalues --    3.66754   3.67194   3.69521   3.71715   3.73198
 Alpha virt. eigenvalues --    3.74614   3.75444   3.76533   3.78812   3.80525
 Alpha virt. eigenvalues --    3.82371   3.83965   3.85106   3.86943   3.88219
 Alpha virt. eigenvalues --    3.88836   3.90362   3.91608   3.94305   3.96069
 Alpha virt. eigenvalues --    3.97454   3.98454   3.99729   4.02653   4.03565
 Alpha virt. eigenvalues --    4.05840   4.09393   4.09610   4.10585   4.11987
 Alpha virt. eigenvalues --    4.14303   4.14740   4.15168   4.17360   4.18045
 Alpha virt. eigenvalues --    4.21935   4.22483   4.24531   4.25498   4.27126
 Alpha virt. eigenvalues --    4.29862   4.32674   4.34496   4.35258   4.35972
 Alpha virt. eigenvalues --    4.37354   4.39340   4.41576   4.43184   4.45127
 Alpha virt. eigenvalues --    4.47929   4.49199   4.50907   4.52798   4.54344
 Alpha virt. eigenvalues --    4.55559   4.59983   4.62111   4.65300   4.67437
 Alpha virt. eigenvalues --    4.68026   4.72702   4.74411   4.76415   4.80049
 Alpha virt. eigenvalues --    4.81073   4.83808   4.86488   4.88905   4.90514
 Alpha virt. eigenvalues --    4.91424   4.93951   4.95976   4.97494   4.98400
 Alpha virt. eigenvalues --    5.00525   5.05695   5.08602   5.10971   5.12309
 Alpha virt. eigenvalues --    5.14423   5.18436   5.19500   5.22153   5.23265
 Alpha virt. eigenvalues --    5.28798   5.29610   5.32459   5.34527   5.34774
 Alpha virt. eigenvalues --    5.36536   5.38158   5.42324   5.44876   5.45938
 Alpha virt. eigenvalues --    5.48234   5.50853   5.52389   5.54463   5.58371
 Alpha virt. eigenvalues --    5.58817   5.61215   5.63235   5.64863   5.69751
 Alpha virt. eigenvalues --    5.71776   5.73287   5.76640   5.77966   5.82828
 Alpha virt. eigenvalues --    5.84986   5.86942   5.87706   5.93601   5.96813
 Alpha virt. eigenvalues --    5.97703   6.00285   6.07002   6.10928   6.13379
 Alpha virt. eigenvalues --    6.16942   6.28507   6.30207   6.31882   6.33746
 Alpha virt. eigenvalues --    6.34386   6.36939   6.41724   6.44843   6.48199
 Alpha virt. eigenvalues --    6.51902   6.59785   6.71732   6.76550   6.88102
 Alpha virt. eigenvalues --    6.95110   6.96006   6.98147   7.15797   7.61926
 Alpha virt. eigenvalues --    9.25198   9.27330   9.36166   9.40160   9.51040
 Alpha virt. eigenvalues --    9.54046   9.63593   9.77354   9.82581   9.86708
 Alpha virt. eigenvalues --    9.90324   9.94932  14.25680  17.94450  18.25487
 Alpha virt. eigenvalues --   18.71166  19.43349
          Condensed to atoms (all electrons):
               1          2          3          4          5          6
     1  C    6.227155   0.347644   0.182119  -0.008490  -0.054763  -0.030730
     2  H    0.347644   0.268220  -0.017670   0.002795   0.005900  -0.003713
     3  H    0.182119  -0.017670   0.281665   0.000503   0.016604  -0.002668
     4  C   -0.008490   0.002795   0.000503   5.312806   0.358024   0.333778
     5  H   -0.054763   0.005900   0.016604   0.358024   0.369979  -0.028210
     6  H   -0.030730  -0.003713  -0.002668   0.333778  -0.028210   0.397031
     7  C    0.067458  -0.006730   0.038755   0.059788   0.005362   0.028697
     8  H    0.000080   0.002288  -0.001928   0.035985   0.011105  -0.014128
     9  H    0.013065   0.001745  -0.020286   0.034001  -0.022314   0.016641
    10  C   -0.010239   0.002136  -0.002160   0.039288  -0.005711  -0.013509
    11  H    0.005051   0.000378  -0.000119  -0.009596  -0.001519  -0.009620
    12  H    0.005391   0.000210  -0.000058  -0.005013  -0.005907  -0.009913
    13  Cl  -0.090757   0.012283   0.021729   0.012704   0.027373  -0.037387
    14  F   -0.144957   0.016354   0.043835  -0.008705  -0.028616   0.018911
    15  H   -0.002183   0.000197  -0.000488   0.004341   0.001189   0.002090
               7          8          9         10         11         12
     1  C    0.067458   0.000080   0.013065  -0.010239   0.005051   0.005391
     2  H   -0.006730   0.002288   0.001745   0.002136   0.000378   0.000210
     3  H    0.038755  -0.001928  -0.020286  -0.002160  -0.000119  -0.000058
     4  C    0.059788   0.035985   0.034001   0.039288  -0.009596  -0.005013
     5  H    0.005362   0.011105  -0.022314  -0.005711  -0.001519  -0.005907
     6  H    0.028697  -0.014128   0.016641  -0.013509  -0.009620  -0.009913
     7  C    5.406191   0.365211   0.371570   0.097016   0.038000   0.032122
     8  H    0.365211   0.323791  -0.002860   0.010098   0.004864   0.005356
     9  H    0.371570  -0.002860   0.372943  -0.007464  -0.002889  -0.000008
    10  C    0.097016   0.010098  -0.007464   5.673812   0.380596   0.385074
    11  H    0.038000   0.004864  -0.002889   0.380596   0.300963   0.024883
    12  H    0.032122   0.005356  -0.000008   0.385074   0.024883   0.299038
    13  Cl   0.000764   0.006379  -0.009541   0.006470   0.000170  -0.000211
    14  F    0.013181  -0.003125   0.004049   0.003048  -0.000793   0.000013
    15  H   -0.036734  -0.002061   0.001488   0.448215   0.002311   0.004304
              13         14         15
     1  C   -0.090757  -0.144957  -0.002183
     2  H    0.012283   0.016354   0.000197
     3  H    0.021729   0.043835  -0.000488
     4  C    0.012704  -0.008705   0.004341
     5  H    0.027373  -0.028616   0.001189
     6  H   -0.037387   0.018911   0.002090
     7  C    0.000764   0.013181  -0.036734
     8  H    0.006379  -0.003125  -0.002061
     9  H   -0.009541   0.004049   0.001488
    10  C    0.006470   0.003048   0.448215
    11  H    0.000170  -0.000793   0.002311
    12  H   -0.000211   0.000013   0.004304
    13  Cl  17.781120   0.014683   0.000414
    14  F    0.014683  10.010385  -0.000078
    15  H    0.000414  -0.000078   0.310441
 Mulliken charges:
               1
     1  C   -0.505845
     2  H    0.367962
     3  H    0.460167
     4  C   -0.162209
     5  H    0.351503
     6  H    0.352730
     7  C   -0.480653
     8  H    0.258942
     9  H    0.249861
    10  C   -1.006670
    11  H    0.267319
    12  H    0.264718
    13  Cl  -0.746192
    14  F   -0.938186
    15  H    0.266552
 Sum of Mulliken charges =  -1.00000
 Mulliken charges with hydrogens summed into heavy atoms:
               1
     1  C    0.322284
     4  C    0.542025
     7  C    0.028151
    10  C   -0.208080
    13  Cl  -0.746192
    14  F   -0.938186
 Electronic spatial extent (au):  <R**2>=           1169.1475
 Charge=             -1.0000 electrons
 Dipole moment (field-independent basis, Debye):
    X=              3.6911    Y=             -5.1059    Z=              0.7165  Tot=              6.3410
 Quadrupole moment (field-independent basis, Debye-Ang):
   XX=            -64.3381   YY=            -78.9813   ZZ=            -47.9312
   XY=             -9.8561   XZ=             -0.3863   YZ=              1.5781
 Traceless Quadrupole moment (field-independent basis, Debye-Ang):
   XX=             -0.5879   YY=            -15.2311   ZZ=             15.8190
   XY=             -9.8561   XZ=             -0.3863   YZ=              1.5781
 Octapole moment (field-independent basis, Debye-Ang**2):
  XXX=             25.5751  YYY=            -60.8793  ZZZ=             -1.1048  XYY=             -5.9735
  XXY=             24.3151  XXZ=              0.2410  XZZ=              0.2993  YZZ=              6.0763
  YYZ=              4.6354  XYZ=              0.8653
 Hexadecapole moment (field-independent basis, Debye-Ang**3):
 XXXX=          -1034.7700 YYYY=           -764.2561 ZZZZ=           -113.4447 XXXY=            -13.0591
 XXXZ=             -5.5719 YYYX=            -27.3897 YYYZ=             10.8120 ZZZX=             -1.5404
 ZZZY=             -2.1080 XXYY=           -262.9867 XXZZ=           -175.6768 YYZZ=           -107.7386
 XXYZ=              3.6866 YYXZ=             -0.1205 ZZXY=             -2.3802
 N-N= 2.864692755144D+02 E-N=-2.282287725050D+03  KE= 7.156440085221D+02
 1\1\GINC-NODE0035\FTS\RHF\Aug-CC-pVTZ\C4H9Cl1F1(1-)\GRAHA682\10-Jul-20
 17\0\\# opt=qst2 aug-cc-pvtz geom=connectivity\\1chloro,flouro-butane 
 reactant\\-1,1\C,-0.7628332819,0.6025107878,0.5268388709\H,-1.37178554
 09,0.8806891115,1.3491601233\H,-0.8872336594,1.1573986817,-0.366901699
 \C,0.4917659147,-0.1768758957,0.7781094464\H,1.0599402978,0.4404066498
 ,1.4591899852\H,0.2395872629,-1.106114149,1.2727955871\C,1.3068820915,
 -0.4436243782,-0.4804181031\H,0.705591475,-1.0040032548,-1.18772536\H,
 1.5455690649,0.5097499283,-0.939377356\C,2.5957587351,-1.2054236005,-0
 .1878193064\H,3.2267690683,-0.6541953925,0.5024627992\H,2.3863023818,-
 2.1738845867,0.2572601063\Cl,-2.180967066,-0.9766859328,-0.1398497475\
 F,0.2067012993,2.4615029146,1.0125363845\H,3.168003957,-1.3769178835,-
 1.094655731\\Version=ES64L-G09RevD.01\State=1-A\HF=-715.7640075\RMSD=9
 .052e-09\RMSF=8.062e-06\Dipole=1.4715525,-1.9614648,-0.459215\Quadrupo
 le=-0.3349934,-9.4276699,9.7626633,-6.7329621,-2.6240615,-6.6451796\PG
 =C01 [X(C4H9Cl1F1)]\\@


 I WISH TO HAVE NO CONNECTION WITH ANY SHIP THAT DOES NOT SAIL FAST,
 FOR I INTEND TO GO IN HARM'S WAY.
     -- JOHN PAUL JONES, USN 1747-1792
 Job cpu time:       1 days  0 hours 13 minutes 38.5 seconds.
 File lengths (MBytes):  RWF=    146 Int=      0 D2E=      0 Chk=     16 Scr=      1
 Normal termination of Gaussian 09 at Mon Jul 10 01:21:30 2017.
87182.85user 35.69system 3:02:16elapsed 797%CPU (0avgtext+0avgdata 631720maxresident)k
552808inputs+11334864outputs (377major+4029773minor)pagefaults 0swaps
