 Entering Gaussian System, Link 0=g09
 Initial command:
 /panfs/roc/msisoft/gaussian/g09.e01_mesabi/g09/l1.exe "/scratch/graha682/4575957.mesabim3.msi.umn.edu/Gau-6436.inp" -scrdir="/scratch/graha682/4575957.mesabim3.msi.umn.edu/"
 Entering Link 1 = /panfs/roc/msisoft/gaussian/g09.e01_mesabi/g09/l1.exe PID=      6437.
  
 Copyright (c) 1988,1990,1992,1993,1995,1998,2003,2009,2015,
            Gaussian, Inc.  All Rights Reserved.
  
 This is part of the Gaussian(R) 09 program.  It is based on
 the Gaussian(R) 03 system (copyright 2003, Gaussian, Inc.),
 the Gaussian(R) 98 system (copyright 1998, Gaussian, Inc.),
 the Gaussian(R) 94 system (copyright 1995, Gaussian, Inc.),
 the Gaussian 92(TM) system (copyright 1992, Gaussian, Inc.),
 the Gaussian 90(TM) system (copyright 1990, Gaussian, Inc.),
 the Gaussian 88(TM) system (copyright 1988, Gaussian, Inc.),
 the Gaussian 86(TM) system (copyright 1986, Carnegie Mellon
 University), and the Gaussian 82(TM) system (copyright 1983,
 Carnegie Mellon University). Gaussian is a federally registered
 trademark of Gaussian, Inc.
  
 This software contains proprietary and confidential information,
 including trade secrets, belonging to Gaussian, Inc.
  
 This software is provided under written license and may be
 used, copied, transmitted, or stored only in accord with that
 written license.
  
 The following legend is applicable only to US Government
 contracts under FAR:
  
                    RESTRICTED RIGHTS LEGEND
  
 Use, reproduction and disclosure by the US Government is
 subject to restrictions as set forth in subparagraphs (a)
 and (c) of the Commercial Computer Software - Restricted
 Rights clause in FAR 52.227-19.
  
 Gaussian, Inc.
 340 Quinnipiac St., Bldg. 40, Wallingford CT 06492
  
  
 ---------------------------------------------------------------
 Warning -- This program may not be used in any manner that
 competes with the business of Gaussian, Inc. or will provide
 assistance to any competitor of Gaussian, Inc.  The licensee
 of this program is prohibited from giving any competitor of
 Gaussian, Inc. access to this program.  By using this program,
 the user acknowledges that Gaussian, Inc. is engaged in the
 business of creating and licensing software in the field of
 computational chemistry and represents and warrants to the
 licensee that it is not a competitor of Gaussian, Inc. and that
 it will not use this program in any manner prohibited above.
 ---------------------------------------------------------------
  

 Cite this work as:
 Gaussian 09, Revision E.01,
 M. J. Frisch, G. W. Trucks, H. B. Schlegel, G. E. Scuseria, 
 M. A. Robb, J. R. Cheeseman, G. Scalmani, V. Barone, B. Mennucci, 
 G. A. Petersson, H. Nakatsuji, M. Caricato, X. Li, H. P. Hratchian, 
 A. F. Izmaylov, J. Bloino, G. Zheng, J. L. Sonnenberg, M. Hada, 
 M. Ehara, K. Toyota, R. Fukuda, J. Hasegawa, M. Ishida, T. Nakajima, 
 Y. Honda, O. Kitao, H. Nakai, T. Vreven, J. A. Montgomery, Jr., 
 J. E. Peralta, F. Ogliaro, M. Bearpark, J. J. Heyd, E. Brothers, 
 K. N. Kudin, V. N. Staroverov, T. Keith, R. Kobayashi, J. Normand, 
 K. Raghavachari, A. Rendell, J. C. Burant, S. S. Iyengar, J. Tomasi, 
 M. Cossi, N. Rega, J. M. Millam, M. Klene, J. E. Knox, J. B. Cross, 
 V. Bakken, C. Adamo, J. Jaramillo, R. Gomperts, R. E. Stratmann, 
 O. Yazyev, A. J. Austin, R. Cammi, C. Pomelli, J. W. Ochterski, 
 R. L. Martin, K. Morokuma, V. G. Zakrzewski, G. A. Voth, 
 P. Salvador, J. J. Dannenberg, S. Dapprich, A. D. Daniels, 
 O. Farkas, J. B. Foresman, J. V. Ortiz, J. Cioslowski, 
 and D. J. Fox, Gaussian, Inc., Wallingford CT, 2013.
 
 ******************************************
 Gaussian 09:  ES64L-G09RevE.01 30-Nov-2015
                 4-Dec-2017 
 ******************************************
 %LindaWorkers=in-cn0005
 %NProcShared=24
 Will use up to   24 processors via shared memory.
 %Mem=59800mb
 %chk=20171201_def2svp_m06_30c12h24.chk
 SetLPE:  input flags=" -workerwait 900 -opt "Tsnet.Node.lindarsharg: ssh " "
 SetLPE:    new flags=" -workerwait 900 -opt "Tsnet.Node.lindarsharg: ssh "  -nodelist 'in-cn0005'"
 Will use up to    1 processors via Linda.
 -----------------------------
 # hf/sto-3g geom=connectivity
 -----------------------------
 1/38=1,57=2/1;
 2/12=2,17=6,18=5,40=1/2;
 3/6=3,11=9,16=1,25=1,30=1/1,2,3;
 4//1;
 5/5=2,38=5/2;
 6/7=2,8=2,9=2,10=2,28=1/1;
 99/5=1,9=1/99;
 -------------------
 Title Card Required
 -------------------
 Symbolic Z-matrix:
 Charge =  0 Multiplicity = 1
 C                    -6.85444  -0.13488  -0.16841 
 H                    -7.04021  -0.81833   0.67765 
 H                    -6.88444  -0.74368  -1.08813 
 H                    -7.69705   0.57265  -0.21285 
 C                    -5.52036   0.56989  -0.02104 
 H                    -5.36871   1.27332  -0.86199 
 H                    -5.52345   1.19984   0.8891 
 C                    -4.34402  -0.3886    0.0425 
 H                    -4.3351   -1.02083  -0.8681 
 H                    -4.48926  -1.09459   0.8849 
 C                    -3.00139   0.30277   0.18946 
 H                    -3.00709   0.93031   1.10287 
 H                    -2.85037   1.00933  -0.6497 
 C                    -1.82468  -0.66362   0.24693 
 H                    -1.80066  -1.27769  -0.67321 
 H                    -1.99464  -1.37372   1.0812 
 C                    -0.51189   0.02301   0.42809 
 H                    -0.40546   0.63496   1.33864 
 C                     0.51189  -0.02301  -0.42809 
 H                     0.29297  -0.17224  -1.498 
 C                     1.9548    0.07735  -0.05982 
 H                     2.05034   0.26704   1.02608 
 H                     2.40981   0.95466  -0.56224 
 C                     2.75538  -1.16297  -0.43741 
 H                     2.63769  -1.36096  -1.52144 
 H                     2.31897  -2.04522   0.06995 
 C                     4.23083  -1.05518  -0.10027 
 H                     4.66185  -0.17032  -0.61055 
 H                     4.34718  -0.85102   0.98314 
 C                     5.03304  -2.29084  -0.46919 
 H                     4.59689  -3.17086   0.04106 
 H                     4.91186  -2.49132  -1.551 
 C                     6.50463  -2.16883  -0.12607 
 H                     7.0727   -3.07168  -0.39942 
 H                     6.96711  -1.31523  -0.65041 
 H                     6.64958  -2.00104   0.95478 
 
                          Input orientation:                          
 ---------------------------------------------------------------------
 Center     Atomic      Atomic             Coordinates (Angstroms)
 Number     Number       Type             X           Y           Z
 ---------------------------------------------------------------------
      1          6           0       -6.854443   -0.134877   -0.168414
      2          1           0       -7.040212   -0.818328    0.677653
      3          1           0       -6.884443   -0.743683   -1.088126
      4          1           0       -7.697052    0.572652   -0.212848
      5          6           0       -5.520363    0.569890   -0.021040
      6          1           0       -5.368713    1.273324   -0.861988
      7          1           0       -5.523451    1.199843    0.889097
      8          6           0       -4.344023   -0.388597    0.042497
      9          1           0       -4.335099   -1.020835   -0.868101
     10          1           0       -4.489260   -1.094591    0.884904
     11          6           0       -3.001393    0.302765    0.189464
     12          1           0       -3.007087    0.930311    1.102873
     13          1           0       -2.850369    1.009328   -0.649702
     14          6           0       -1.824677   -0.663624    0.246928
     15          1           0       -1.800656   -1.277687   -0.673205
     16          1           0       -1.994641   -1.373719    1.081199
     17          6           0       -0.511885    0.023005    0.428088
     18          1           0       -0.405457    0.634962    1.338635
     19          6           0        0.511885   -0.023005   -0.428088
     20          1           0        0.292973   -0.172239   -1.498004
     21          6           0        1.954803    0.077345   -0.059824
     22          1           0        2.050343    0.267037    1.026078
     23          1           0        2.409815    0.954658   -0.562236
     24          6           0        2.755376   -1.162970   -0.437412
     25          1           0        2.637688   -1.360958   -1.521438
     26          1           0        2.318971   -2.045223    0.069953
     27          6           0        4.230825   -1.055185   -0.100266
     28          1           0        4.661851   -0.170316   -0.610554
     29          1           0        4.347182   -0.851016    0.983141
     30          6           0        5.033043   -2.290843   -0.469189
     31          1           0        4.596891   -3.170861    0.041056
     32          1           0        4.911859   -2.491316   -1.551004
     33          6           0        6.504631   -2.168831   -0.126074
     34          1           0        7.072700   -3.071681   -0.399424
     35          1           0        6.967107   -1.315234   -0.650413
     36          1           0        6.649576   -2.001041    0.954783
 ---------------------------------------------------------------------
                    Distance matrix (angstroms):
                    1          2          3          4          5
     1  C    0.000000
     2  H    1.103379   0.000000
     3  H    1.103365   1.774207   0.000000
     4  H    1.101164   1.777430   1.777409   0.000000
     5  C    1.515977   2.173767   2.173674   2.185125   0.000000
     6  H    2.161358   3.088594   2.533159   2.516642   1.106802
     7  H    2.161330   2.533434   3.088528   2.516385   1.106887
     8  C    2.532008   2.803128   2.803235   3.497428   1.518720
     9  H    2.760720   3.122179   2.573787   3.777735   2.157028
    10  H    2.761272   2.574224   3.122961   3.778186   2.157407
    11  C    3.894304   4.219862   4.219641   4.720583   2.541826
    12  H    4.189623   4.416407   4.757796   4.884139   2.776624
    13  H    4.192070   4.759935   4.420296   4.885884   2.777983
    14  C    5.074508   5.235577   5.233547   6.018684   3.905312
    15  H    5.205919   5.430357   5.128568   6.197029   4.204174
    16  H    5.168553   5.092062   5.386379   6.162825   4.174118
    17  C    6.372502   6.587046   6.595166   7.234607   5.058226
    18  H    6.667328   6.824143   7.054579   7.455088   5.292940
    19  C    7.371752   7.673941   7.460610   8.233334   6.074967
    20  H    7.270128   7.676361   7.211785   8.126929   6.043761
    21  C    8.812471   9.069531   8.936653   9.665767   7.491476
    22  H    8.993529   9.161747   9.236981   9.830567   7.648775
    23  H    9.336415   9.694525   9.462777  10.120116   7.957930
    24  C    9.668400   9.864871   9.670850  10.597927   8.465460
    25  H    9.666152   9.939427   9.551951  10.595193   8.516641
    26  H    9.373248   9.458799   9.366856  10.356349   8.264518
    27  C   11.123614  11.300333  11.163426  12.038969   9.885991
    28  H   11.524833  11.790576  11.570382  12.387601  10.226090
    29  H   11.283410  11.391538  11.421518  12.186911  10.019770
    30  C   12.085156  12.216671  12.033423  13.050695  10.943446
    31  H   11.848803  11.889569  11.789287  12.853770  10.786840
    32  H   12.079330  12.272644  11.934036  13.044661  10.979209
    33  C   13.513091  13.635711  13.499033  14.464130  12.333373
    34  H   14.235290  14.332200  14.166711  15.213860  13.114474
    35  H   13.880231  14.078908  13.870245  14.791658  12.644632
    36  H   13.678548  13.743577  13.744966  14.622346  12.476752
                    6          7          8          9         10
     6  H    0.000000
     7  H    1.759444   0.000000
     8  C    2.151758   2.151958   0.000000
     9  H    2.516259   3.071048   1.108600   0.000000
    10  H    3.071171   2.516743   1.108680   1.761315   0.000000
    11  C    2.766178   2.766769   1.517312   2.156185   2.156383
    12  H    3.091216   2.539771   2.156690   3.074951   2.518844
    13  H    2.541027   3.090237   2.159707   2.524615   3.076923
    14  C    4.188276   4.191160   2.542545   2.770038   2.773580
    15  H    4.390254   4.736892   2.787728   2.554870   3.112847
    16  H    4.708203   4.371799   2.751175   3.066275   2.517850
    17  C    5.178453   5.168488   3.873419   4.169733   4.156587
    18  H    5.466640   5.168659   4.270825   4.801399   4.458102
    19  C    6.037398   6.297270   4.892336   4.968152   5.280501
    20  H    5.877827   6.435188   4.890980   4.747203   5.422060
    21  C    7.463760   7.621334   6.316865   6.436007   6.617545
    22  H    7.721386   7.632250   6.502707   6.783833   6.681345
    23  H    7.790821   8.068655   6.912623   7.034912   7.341040
    24  C    8.492150   8.710998   7.157613   7.104965   7.364641
    25  H    8.454394   8.886651   7.220503   7.011583   7.526940
    26  H    8.425067   8.526725   6.865905   6.797497   6.922417
    27  C    9.907235  10.060313   8.601903   8.600338   8.775648
    28  H   10.137038  10.385888   9.032159   9.040732   9.318450
    29  H   10.115134  10.081878   8.754181   8.879073   8.840344
    30  C   11.002459  11.201312   9.581740   9.462248   9.692205
    31  H   10.948952  11.056381   9.363810   9.231989   9.358479
    32  H   10.969841  11.334657   9.624553   9.388019   9.811500
    33  C   12.384115  12.532090  10.995042  10.925577  11.092417
    34  H   13.186424  13.362979  11.736089  11.600151  11.799885
    35  H   12.606262  12.833929  11.370156  11.308135  11.560892
    36  H   12.588145  12.587000  11.148608  11.177960  11.175876
                   11         12         13         14         15
    11  C    0.000000
    12  H    1.108225   0.000000
    13  H    1.107357   1.761341   0.000000
    14  C    1.523768   2.161334   2.157489   0.000000
    15  H    2.164208   3.079803   2.516523   1.106479   0.000000
    16  H    2.149265   2.516758   3.067116   1.108662   1.767706
    17  C    2.516517   2.739447   2.757349   1.492549   2.136721
    18  H    2.858292   2.628934   3.173520   2.211862   3.106816
    19  C    3.581985   3.954215   3.524142   2.515067   2.642377
    20  H    3.731759   4.344027   3.463569   2.787595   2.507108
    21  C    4.967579   5.167182   4.930135   3.863626   4.039285
    22  H    5.120667   5.101316   5.232228   4.060663   4.483740
    23  H    5.501926   5.667099   5.261195   4.604835   4.766942
    24  C    5.973419   6.321414   6.015673   4.657741   4.563571
    25  H    6.123267   6.633280   6.041271   4.850371   4.519439
    26  H    5.816666   6.187699   6.047335   4.371494   4.255905
    27  C    7.364302   7.601125   7.396445   6.078073   6.062717
    28  H    7.719401   7.934723   7.604377   6.561530   6.556996
    29  H    7.480822   7.567875   7.611294   6.218438   6.381336
    30  C    8.468341   8.802892   8.548211   7.084419   6.911407
    31  H    8.355958   8.704456   8.568128   6.896750   6.709910
    32  H    8.570629   9.025536   8.562654   7.207908   6.877593
    33  C    9.827148  10.079076   9.893983   8.472435   8.370859
    34  H   10.640537  10.948741  10.732407   9.240120   9.057031
    35  H   10.133820  10.373092  10.088926   8.861449   8.767873
    36  H    9.951605  10.092864  10.093842   8.608293   8.635972
                   16         17         18         19         20
    16  H    0.000000
    17  C    2.139149   0.000000
    18  H    2.574214   1.102231   0.000000
    19  C    3.222584   1.335387   2.096604   0.000000
    20  H    3.650893   2.096604   3.030825   1.102231   0.000000
    21  C    4.359545   2.515067   2.799545   1.492549   2.211862
    22  H    4.365434   2.642377   2.502801   2.136721   3.106816
    23  H    5.246089   3.222584   3.411931   2.139149   2.574214
    24  C    4.991318   3.581985   4.046945   2.516517   2.858292
    25  H    5.313413   3.954215   4.628655   2.739447   2.628934
    26  H    4.481159   3.524142   4.026842   2.757349   3.173520
    27  C    6.344584   4.892336   5.140247   3.873419   4.270825
    28  H    6.972739   5.280501   5.488663   4.156587   4.458102
    29  H    6.364083   4.968152   4.992203   4.169733   4.801399
    30  C    7.254872   6.074967   6.434738   5.058226   5.292940
    31  H    6.910855   6.037398   6.418060   5.178453   5.466640
    32  H    7.475109   6.297270   6.811569   5.168488   5.168659
    33  C    8.621330   7.371752   7.599733   6.372502   6.667328
    34  H    9.343018   8.233334   8.525425   7.234607   7.455088
    35  H    9.127696   7.673941   7.881261   6.587046   6.824142
    36  H    8.667872   7.460610   7.541177   6.595166   7.054579
                   21         22         23         24         25
    21  C    0.000000
    22  H    1.106479   0.000000
    23  H    1.108662   1.767706   0.000000
    24  C    1.523768   2.164208   2.149265   0.000000
    25  H    2.161334   3.079803   2.516758   1.108225   0.000000
    26  H    2.157489   2.516523   3.067116   1.107357   1.761341
    27  C    2.542545   2.787728   2.751175   1.517312   2.156690
    28  H    2.773580   3.112847   2.517850   2.156383   2.518844
    29  H    2.770038   2.554870   3.066275   2.156185   3.074951
    30  C    3.905312   4.204174   4.174118   2.541826   2.776624
    31  H    4.188276   4.390254   4.708203   2.766178   3.091216
    32  H    4.191160   4.736892   4.371799   2.766769   2.539771
    33  C    5.074508   5.205919   5.168553   3.894304   4.189623
    34  H    6.018684   6.197029   6.162825   4.720583   4.884139
    35  H    5.235577   5.430357   5.092062   4.219862   4.416406
    36  H    5.233547   5.128568   5.386379   4.219641   4.757796
                   26         27         28         29         30
    26  H    0.000000
    27  C    2.159707   0.000000
    28  H    3.076923   1.108680   0.000000
    29  H    2.524615   1.108600   1.761315   0.000000
    30  C    2.777983   1.518720   2.157407   2.157028   0.000000
    31  H    2.541027   2.151758   3.071171   2.516259   1.106802
    32  H    3.090237   2.151958   2.516743   3.071048   1.106887
    33  C    4.192070   2.532008   2.761272   2.760721   1.515977
    34  H    4.885884   3.497428   3.778186   3.777735   2.185125
    35  H    4.759935   2.803128   2.574224   3.122179   2.173766
    36  H    4.420296   2.803235   3.122961   2.573787   2.173674
                   31         32         33         34         35
    31  H    0.000000
    32  H    1.759444   0.000000
    33  C    2.161358   2.161330   0.000000
    34  H    2.516642   2.516385   1.101164   0.000000
    35  H    3.088593   2.533433   1.103378   1.777429   0.000000
    36  H    2.533159   3.088528   1.103365   1.777409   1.774207
                   36
    36  H    0.000000
 Stoichiometry    C12H24
 Framework group  C1[X(C12H24)]
 Deg. of freedom   102
 Full point group                 C1      NOp   1
 Largest Abelian subgroup         C1      NOp   1
 Largest concise Abelian subgroup C1      NOp   1
                         Standard orientation:                         
 ---------------------------------------------------------------------
 Center     Atomic      Atomic             Coordinates (Angstroms)
 Number     Number       Type             X           Y           Z
 ---------------------------------------------------------------------
      1          6           0        6.742451   -0.688054    0.122376
      2          1           0        6.834103   -1.214240   -0.843115
      3          1           0        6.649723   -1.461155    0.904126
      4          1           0        7.688406   -0.152407    0.297908
      5          6           0        5.546100    0.243021    0.127813
      6          1           0        5.491497    0.783870    1.091925
      7          1           0        5.674693    1.029211   -0.640671
      8          6           0        4.230321   -0.476190   -0.112960
      9          1           0        4.095586   -1.263712    0.655576
     10          1           0        4.278215   -1.018167   -1.078951
     11          6           0        3.023329    0.443264   -0.109688
     12          1           0        3.154177    1.227335   -0.881876
     13          1           0        2.969900    0.987382    0.853286
     14          6           0        1.705734   -0.284709   -0.346058
     15          1           0        1.558862   -1.054024    0.435530
     16          1           0        1.777141   -0.836336   -1.305088
     17          6           0        0.528223    0.631904   -0.377494
     18          1           0        0.545875    1.418924   -1.148988
     19          6           0       -0.509769    0.589826    0.461589
     20          1           0       -0.344445    0.200333    1.479370
     21          6           0       -1.907253    0.997819    0.132528
     22          1           0       -1.943885    1.409103   -0.894019
     23          1           0       -2.224233    1.823129    0.801497
     24          6           0       -2.909467   -0.142233    0.265638
     25          1           0       -2.852309   -0.564840    1.288525
     26          1           0       -2.611527   -0.968269   -0.409000
     27          6           0       -4.338569    0.272258   -0.031176
     28          1           0       -4.630847    1.099360    0.646797
     29          1           0       -4.393415    0.700498   -1.052252
     30          6           0       -5.341430   -0.861328    0.094368
     31          1           0       -5.043302   -1.684599   -0.582652
     32          1           0       -5.281178   -1.286484    1.114570
     33          6           0       -6.764244   -0.432558   -0.205533
     34          1           0       -7.479259   -1.264564   -0.110239
     35          1           0       -7.093011    0.366782    0.480333
     36          1           0       -6.853315   -0.035245   -1.231020
 ---------------------------------------------------------------------
 Rotational constants (GHZ):      4.9214561      0.1620578      0.1596720
 Standard basis: STO-3G (5D, 7F)
 There are    84 symmetry adapted cartesian basis functions of A   symmetry.
 There are    84 symmetry adapted basis functions of A   symmetry.
    84 basis functions,   252 primitive gaussians,    84 cartesian basis functions
    48 alpha electrons       48 beta electrons
       nuclear repulsion energy       652.2519636871 Hartrees.
 NAtoms=   36 NActive=   36 NUniq=   36 SFac= 1.00D+00 NAtFMM=   60 NAOKFM=F Big=F
 Integral buffers will be    131072 words long.
 Raffenetti 1 integral format.
 Two-electron integral symmetry is turned on.
 One-electron integrals computed using PRISM.
 NBasis=    84 RedAO= T EigKep=  1.87D-01  NBF=    84
 NBsUse=    84 1.00D-06 EigRej= -1.00D+00 NBFU=    84
 ExpMin= 1.69D-01 ExpMax= 7.16D+01 ExpMxC= 7.16D+01 IAcc=1 IRadAn=         1 AccDes= 0.00D+00
 Harris functional with IExCor=  205 and IRadAn=       1 diagonalized for initial guess.
 HarFok:  IExCor=  205 AccDes= 0.00D+00 IRadAn=         1 IDoV= 1 UseB2=F ITyADJ=14
 ICtDFT=  3500011 ScaDFX=  1.000000  1.000000  1.000000  1.000000
 FoFCou: FMM=F IPFlag=           0 FMFlag=      100000 FMFlg1=           0
         NFxFlg=           0 DoJE=T BraDBF=F KetDBF=T FulRan=T
         wScrn=  0.000000 ICntrl=     500 IOpCl=  0 I1Cent=   200000004 NGrid=           0
         NMat0=    1 NMatS0=      1 NMatT0=    0 NMatD0=    1 NMtDS0=    0 NMtDT0=    0
 Petite list used in FoFCou.
 Keep R1 ints in memory in canonical form, NReq=7307849.
 Requested convergence on RMS density matrix=1.00D-08 within 128 cycles.
 Requested convergence on MAX density matrix=1.00D-06.
 Requested convergence on             energy=1.00D-06.
 No special actions if energy rises.
 SCF Done:  E(RHF) =  -462.849449009     A.U. after   11 cycles
            NFock= 11  Conv=0.28D-08     -V/T= 2.0088

 **********************************************************************

            Population analysis using the SCF density.

 **********************************************************************

 Orbital symmetries:
       Occupied  (A) (A) (A) (A) (A) (A) (A) (A) (A) (A) (A) (A)
                 (A) (A) (A) (A) (A) (A) (A) (A) (A) (A) (A) (A)
                 (A) (A) (A) (A) (A) (A) (A) (A) (A) (A) (A) (A)
                 (A) (A) (A) (A) (A) (A) (A) (A) (A) (A) (A) (A)
       Virtual   (A) (A) (A) (A) (A) (A) (A) (A) (A) (A) (A) (A)
                 (A) (A) (A) (A) (A) (A) (A) (A) (A) (A) (A) (A)
                 (A) (A) (A) (A) (A) (A) (A) (A) (A) (A) (A) (A)
 The electronic state is 1-A.
 Alpha  occ. eigenvalues --  -11.04235 -11.04178 -11.04083 -11.04033 -11.03938
 Alpha  occ. eigenvalues --  -11.03822 -11.03636 -11.03587 -11.03397 -11.03304
 Alpha  occ. eigenvalues --  -11.00747 -11.00670  -1.05708  -1.04552  -1.01752
 Alpha  occ. eigenvalues --   -0.98632  -0.94402  -0.89493  -0.84803  -0.79218
 Alpha  occ. eigenvalues --   -0.76308  -0.75054  -0.74779  -0.69460  -0.61882
 Alpha  occ. eigenvalues --   -0.61503  -0.57919  -0.57716  -0.55768  -0.55142
 Alpha  occ. eigenvalues --   -0.53451  -0.53095  -0.52275  -0.51224  -0.48760
 Alpha  occ. eigenvalues --   -0.48139  -0.47038  -0.46349  -0.44909  -0.43645
 Alpha  occ. eigenvalues --   -0.43022  -0.42588  -0.42467  -0.41994  -0.41705
 Alpha  occ. eigenvalues --   -0.41600  -0.39628  -0.26253
 Alpha virt. eigenvalues --    0.29733   0.55964   0.57959   0.57988   0.59104
 Alpha virt. eigenvalues --    0.61785   0.63472   0.65754   0.66389   0.66818
 Alpha virt. eigenvalues --    0.67369   0.67980   0.69142   0.69654   0.70734
 Alpha virt. eigenvalues --    0.71180   0.72614   0.73464   0.73935   0.74328
 Alpha virt. eigenvalues --    0.74548   0.75324   0.76209   0.76453   0.77461
 Alpha virt. eigenvalues --    0.78085   0.78210   0.78756   0.80312   0.80548
 Alpha virt. eigenvalues --    0.80884   0.81109   0.81966   0.82525   0.94533
 Alpha virt. eigenvalues --    1.06480
          Condensed to atoms (all electrons):
               1          2          3          4          5          6
     1  C    4.726358   0.380222   0.380228   0.381576   0.368716  -0.022197
     2  H    0.380222   0.633969  -0.021873  -0.021557  -0.021001   0.001880
     3  H    0.380228  -0.021873   0.633893  -0.021554  -0.021002  -0.002226
     4  H    0.381576  -0.021557  -0.021554   0.629407  -0.019430  -0.002124
     5  C    0.368716  -0.021001  -0.021002  -0.019430   4.726186   0.379358
     6  H   -0.022197   0.001880  -0.002226  -0.002124   0.379358   0.646401
     7  H   -0.022210  -0.002222   0.001880  -0.002128   0.379307  -0.023874
     8  C   -0.022882  -0.002136  -0.002134   0.001242   0.367897  -0.023021
     9  H   -0.002216  -0.000005   0.000393   0.000009  -0.022757  -0.002346
    10  H   -0.002209   0.000394  -0.000005   0.000009  -0.022743   0.001945
    11  C    0.000718   0.000008   0.000008  -0.000015  -0.021697  -0.002209
    12  H    0.000007   0.000002  -0.000001  -0.000000  -0.002156   0.000004
    13  H    0.000007  -0.000001   0.000002  -0.000000  -0.002156   0.000386
    14  C   -0.000005  -0.000000  -0.000000   0.000000   0.000699   0.000007
    15  H   -0.000000   0.000000  -0.000000   0.000000   0.000006   0.000002
    16  H   -0.000000  -0.000000   0.000000   0.000000   0.000007  -0.000001
    17  C    0.000000   0.000000   0.000000  -0.000000  -0.000005  -0.000000
    18  H   -0.000000  -0.000000  -0.000000   0.000000   0.000000   0.000000
    19  C   -0.000000  -0.000000  -0.000000   0.000000   0.000000  -0.000000
    20  H   -0.000000  -0.000000  -0.000000   0.000000   0.000000   0.000000
    21  C    0.000000   0.000000   0.000000  -0.000000  -0.000000  -0.000000
    22  H    0.000000   0.000000   0.000000  -0.000000  -0.000000  -0.000000
    23  H   -0.000000  -0.000000  -0.000000   0.000000   0.000000   0.000000
    24  C    0.000000   0.000000   0.000000  -0.000000  -0.000000  -0.000000
    25  H   -0.000000  -0.000000  -0.000000   0.000000   0.000000  -0.000000
    26  H   -0.000000  -0.000000  -0.000000   0.000000   0.000000   0.000000
    27  C    0.000000   0.000000   0.000000   0.000000   0.000000   0.000000
    28  H    0.000000   0.000000   0.000000   0.000000  -0.000000  -0.000000
    29  H    0.000000   0.000000  -0.000000   0.000000   0.000000   0.000000
    30  C    0.000000   0.000000   0.000000   0.000000   0.000000  -0.000000
    31  H    0.000000   0.000000   0.000000   0.000000  -0.000000  -0.000000
    32  H    0.000000   0.000000   0.000000   0.000000   0.000000  -0.000000
    33  C    0.000000   0.000000   0.000000   0.000000   0.000000   0.000000
    34  H    0.000000   0.000000   0.000000   0.000000   0.000000   0.000000
    35  H    0.000000   0.000000   0.000000   0.000000   0.000000   0.000000
    36  H    0.000000   0.000000   0.000000   0.000000   0.000000   0.000000
               7          8          9         10         11         12
     1  C   -0.022210  -0.022882  -0.002216  -0.002209   0.000718   0.000007
     2  H   -0.002222  -0.002136  -0.000005   0.000394   0.000008   0.000002
     3  H    0.001880  -0.002134   0.000393  -0.000005   0.000008  -0.000001
     4  H   -0.002128   0.001242   0.000009   0.000009  -0.000015  -0.000000
     5  C    0.379307   0.367897  -0.022757  -0.022743  -0.021697  -0.002156
     6  H   -0.023874  -0.023021  -0.002346   0.001945  -0.002209   0.000004
     7  H    0.646716  -0.023029   0.001946  -0.002345  -0.002201   0.000392
     8  C   -0.023029   4.740239   0.378416   0.378382   0.368375  -0.022789
     9  H    0.001946   0.378416   0.650392  -0.023916  -0.022777   0.001934
    10  H   -0.002345   0.378382  -0.023916   0.650839  -0.022765  -0.002341
    11  C   -0.002201   0.368375  -0.022777  -0.022765   4.742938   0.378711
    12  H    0.000392  -0.022789   0.001934  -0.002341   0.378711   0.649412
    13  H    0.000004  -0.022603  -0.002281   0.001923   0.379173  -0.023896
    14  C    0.000007  -0.021881  -0.002216  -0.002227   0.360749  -0.022381
    15  H   -0.000001  -0.002034   0.000373  -0.000001  -0.021777   0.001883
    16  H    0.000002  -0.002325   0.000003   0.000444  -0.023425  -0.002272
    17  C   -0.000000   0.000765   0.000009   0.000007  -0.024155  -0.002403
    18  H   -0.000000  -0.000008  -0.000001   0.000001  -0.000854   0.000389
    19  C    0.000000  -0.000005   0.000000  -0.000000   0.000453   0.000009
    20  H    0.000000  -0.000002  -0.000000  -0.000000   0.000073   0.000000
    21  C   -0.000000   0.000000   0.000000   0.000000  -0.000005  -0.000000
    22  H   -0.000000   0.000000  -0.000000   0.000000  -0.000000  -0.000000
    23  H    0.000000  -0.000000  -0.000000  -0.000000   0.000001   0.000000
    24  C   -0.000000   0.000000   0.000000  -0.000000  -0.000000   0.000000
    25  H    0.000000  -0.000000   0.000000  -0.000000   0.000000  -0.000000
    26  H    0.000000  -0.000000  -0.000000  -0.000000   0.000000   0.000000
    27  C   -0.000000  -0.000000  -0.000000   0.000000   0.000000  -0.000000
    28  H   -0.000000   0.000000  -0.000000   0.000000  -0.000000  -0.000000
    29  H    0.000000  -0.000000  -0.000000   0.000000   0.000000  -0.000000
    30  C    0.000000  -0.000000   0.000000  -0.000000  -0.000000   0.000000
    31  H   -0.000000   0.000000   0.000000   0.000000  -0.000000  -0.000000
    32  H    0.000000  -0.000000   0.000000  -0.000000  -0.000000   0.000000
    33  C    0.000000   0.000000  -0.000000   0.000000   0.000000  -0.000000
    34  H    0.000000   0.000000   0.000000  -0.000000  -0.000000   0.000000
    35  H    0.000000   0.000000   0.000000   0.000000   0.000000  -0.000000
    36  H    0.000000   0.000000  -0.000000   0.000000   0.000000  -0.000000
              13         14         15         16         17         18
     1  C    0.000007  -0.000005  -0.000000  -0.000000   0.000000  -0.000000
     2  H   -0.000001  -0.000000   0.000000  -0.000000   0.000000  -0.000000
     3  H    0.000002  -0.000000  -0.000000   0.000000   0.000000  -0.000000
     4  H   -0.000000   0.000000   0.000000   0.000000  -0.000000   0.000000
     5  C   -0.002156   0.000699   0.000006   0.000007  -0.000005   0.000000
     6  H    0.000386   0.000007   0.000002  -0.000001  -0.000000   0.000000
     7  H    0.000004   0.000007  -0.000001   0.000002  -0.000000  -0.000000
     8  C   -0.022603  -0.021881  -0.002034  -0.002325   0.000765  -0.000008
     9  H   -0.002281  -0.002216   0.000373   0.000003   0.000009  -0.000001
    10  H    0.001923  -0.002227  -0.000001   0.000444   0.000007   0.000001
    11  C    0.379173   0.360749  -0.021777  -0.023425  -0.024155  -0.000854
    12  H   -0.023896  -0.022381   0.001883  -0.002272  -0.002403   0.000389
    13  H    0.647486  -0.022640  -0.002405   0.001932  -0.002122  -0.000003
    14  C   -0.022640   4.722578   0.379382   0.378579   0.383248  -0.025654
    15  H   -0.002405   0.379382   0.639612  -0.023202  -0.022591   0.001698
    16  H    0.001932   0.378579  -0.023202   0.638781  -0.022596  -0.002298
    17  C   -0.002122   0.383248  -0.022591  -0.022596   4.834837   0.383845
    18  H   -0.000003  -0.025654   0.001698  -0.002298   0.383845   0.627949
    19  C    0.000078  -0.026041  -0.004381   0.000193   0.590377  -0.030251
    20  H    0.000040  -0.003864   0.000527   0.000019  -0.030061   0.002202
    21  C   -0.000001   0.000807   0.000022  -0.000019  -0.026357  -0.003726
    22  H    0.000000   0.000019   0.000001  -0.000000  -0.004404   0.000559
    23  H   -0.000000  -0.000016  -0.000001  -0.000001   0.000916   0.000096
    24  C    0.000000  -0.000008  -0.000000   0.000003  -0.000067   0.000012
    25  H    0.000000  -0.000000  -0.000001   0.000000   0.000011  -0.000000
    26  H    0.000000  -0.000006   0.000000  -0.000000   0.000120   0.000008
    27  C   -0.000000   0.000000   0.000000  -0.000000  -0.000001  -0.000001
    28  H   -0.000000   0.000000   0.000000  -0.000000  -0.000000   0.000000
    29  H   -0.000000   0.000000  -0.000000  -0.000000   0.000000  -0.000000
    30  C    0.000000  -0.000000  -0.000000   0.000000  -0.000000   0.000000
    31  H    0.000000   0.000000   0.000000   0.000000  -0.000000  -0.000000
    32  H    0.000000  -0.000000  -0.000000   0.000000   0.000000  -0.000000
    33  C   -0.000000   0.000000   0.000000  -0.000000   0.000000  -0.000000
    34  H    0.000000  -0.000000  -0.000000   0.000000  -0.000000   0.000000
    35  H   -0.000000   0.000000   0.000000  -0.000000  -0.000000  -0.000000
    36  H   -0.000000   0.000000   0.000000  -0.000000  -0.000000  -0.000000
              19         20         21         22         23         24
     1  C   -0.000000  -0.000000   0.000000   0.000000  -0.000000   0.000000
     2  H   -0.000000  -0.000000   0.000000   0.000000  -0.000000   0.000000
     3  H   -0.000000  -0.000000   0.000000   0.000000  -0.000000   0.000000
     4  H    0.000000   0.000000  -0.000000  -0.000000   0.000000  -0.000000
     5  C    0.000000   0.000000  -0.000000  -0.000000   0.000000  -0.000000
     6  H   -0.000000   0.000000  -0.000000  -0.000000   0.000000  -0.000000
     7  H    0.000000   0.000000  -0.000000  -0.000000   0.000000  -0.000000
     8  C   -0.000005  -0.000002   0.000000   0.000000  -0.000000   0.000000
     9  H    0.000000  -0.000000   0.000000  -0.000000  -0.000000   0.000000
    10  H   -0.000000  -0.000000   0.000000   0.000000  -0.000000  -0.000000
    11  C    0.000453   0.000073  -0.000005  -0.000000   0.000001  -0.000000
    12  H    0.000009   0.000000  -0.000000  -0.000000   0.000000   0.000000
    13  H    0.000078   0.000040  -0.000001   0.000000  -0.000000   0.000000
    14  C   -0.026041  -0.003864   0.000807   0.000019  -0.000016  -0.000008
    15  H   -0.004381   0.000527   0.000022   0.000001  -0.000001  -0.000000
    16  H    0.000193   0.000019  -0.000019  -0.000000  -0.000001   0.000003
    17  C    0.590377  -0.030061  -0.026357  -0.004404   0.000916  -0.000067
    18  H   -0.030251   0.002202  -0.003726   0.000559   0.000096   0.000012
    19  C    4.834564   0.383475   0.383453  -0.022674  -0.024382  -0.022637
    20  H    0.383475   0.628526  -0.025610   0.001698  -0.000810  -0.002077
    21  C    0.383453  -0.025610   4.723375   0.379383   0.373567   0.365235
    22  H   -0.022674   0.001698   0.379383   0.639718  -0.022628  -0.022217
    23  H   -0.024382  -0.000810   0.373567  -0.022628   0.650162  -0.023499
    24  C   -0.022637  -0.002077   0.365235  -0.022217  -0.023499   4.737984
    25  H   -0.002324   0.000374  -0.022455   0.001884  -0.002239   0.378554
    26  H   -0.001626   0.000025  -0.022948  -0.002400   0.001981   0.378479
    27  C    0.000716   0.000007  -0.021578  -0.002006  -0.002501   0.369030
    28  H    0.000007   0.000001  -0.002205  -0.000001   0.000434  -0.022792
    29  H    0.000007  -0.000001  -0.002187   0.000378  -0.000003  -0.022787
    30  C   -0.000004  -0.000000   0.000690   0.000006   0.000010  -0.021632
    31  H   -0.000000   0.000000   0.000006   0.000002  -0.000001  -0.002202
    32  H   -0.000000  -0.000000   0.000006  -0.000001   0.000002  -0.002194
    33  C    0.000000   0.000000  -0.000005  -0.000000  -0.000000   0.000716
    34  H   -0.000000  -0.000000   0.000000   0.000000   0.000000  -0.000015
    35  H    0.000000  -0.000000  -0.000000   0.000000  -0.000000   0.000008
    36  H    0.000000  -0.000000  -0.000000  -0.000000   0.000000   0.000008
              25         26         27         28         29         30
     1  C   -0.000000  -0.000000   0.000000   0.000000   0.000000   0.000000
     2  H   -0.000000  -0.000000   0.000000   0.000000   0.000000   0.000000
     3  H   -0.000000  -0.000000   0.000000   0.000000  -0.000000   0.000000
     4  H    0.000000   0.000000   0.000000   0.000000   0.000000   0.000000
     5  C    0.000000   0.000000   0.000000  -0.000000   0.000000   0.000000
     6  H   -0.000000   0.000000   0.000000  -0.000000   0.000000  -0.000000
     7  H    0.000000   0.000000  -0.000000  -0.000000   0.000000   0.000000
     8  C   -0.000000  -0.000000  -0.000000   0.000000  -0.000000  -0.000000
     9  H    0.000000  -0.000000  -0.000000  -0.000000  -0.000000   0.000000
    10  H   -0.000000  -0.000000   0.000000   0.000000   0.000000  -0.000000
    11  C    0.000000   0.000000   0.000000  -0.000000   0.000000  -0.000000
    12  H   -0.000000   0.000000  -0.000000  -0.000000  -0.000000   0.000000
    13  H    0.000000   0.000000  -0.000000  -0.000000  -0.000000   0.000000
    14  C   -0.000000  -0.000006   0.000000   0.000000   0.000000  -0.000000
    15  H   -0.000001   0.000000   0.000000   0.000000  -0.000000  -0.000000
    16  H    0.000000  -0.000000  -0.000000  -0.000000  -0.000000   0.000000
    17  C    0.000011   0.000120  -0.000001  -0.000000   0.000000  -0.000000
    18  H   -0.000000   0.000008  -0.000001   0.000000  -0.000000   0.000000
    19  C   -0.002324  -0.001626   0.000716   0.000007   0.000007  -0.000004
    20  H    0.000374   0.000025   0.000007   0.000001  -0.000001  -0.000000
    21  C   -0.022455  -0.022948  -0.021578  -0.002205  -0.002187   0.000690
    22  H    0.001884  -0.002400  -0.002006  -0.000001   0.000378   0.000006
    23  H   -0.002239   0.001981  -0.002501   0.000434  -0.000003   0.000010
    24  C    0.378554   0.378479   0.369030  -0.022792  -0.022787  -0.021632
    25  H    0.647312  -0.023781  -0.022694  -0.002342   0.001933  -0.002162
    26  H   -0.023781   0.646005  -0.022492   0.001921  -0.002276  -0.002167
    27  C   -0.022694  -0.022492   4.738372   0.378436   0.378382   0.368028
    28  H   -0.002342   0.001921   0.378436   0.649175  -0.023842  -0.022696
    29  H    0.001933  -0.002276   0.378382  -0.023842   0.649078  -0.022694
    30  C   -0.002162  -0.002167   0.368028  -0.022696  -0.022694   4.725709
    31  H    0.000003   0.000385  -0.023040   0.001944  -0.002345   0.379355
    32  H    0.000393   0.000003  -0.023051  -0.002345   0.001945   0.379309
    33  C    0.000007   0.000007  -0.022850  -0.002208  -0.002218   0.368778
    34  H   -0.000000  -0.000000   0.001240   0.000009   0.000010  -0.019420
    35  H    0.000002  -0.000001  -0.002134   0.000394  -0.000006  -0.021006
    36  H   -0.000001   0.000002  -0.002132  -0.000006   0.000393  -0.021008
              31         32         33         34         35         36
     1  C    0.000000   0.000000   0.000000   0.000000   0.000000   0.000000
     2  H    0.000000   0.000000   0.000000   0.000000   0.000000   0.000000
     3  H    0.000000   0.000000   0.000000   0.000000   0.000000   0.000000
     4  H    0.000000   0.000000   0.000000   0.000000   0.000000   0.000000
     5  C   -0.000000   0.000000   0.000000   0.000000   0.000000   0.000000
     6  H   -0.000000  -0.000000   0.000000   0.000000   0.000000   0.000000
     7  H   -0.000000   0.000000   0.000000   0.000000   0.000000   0.000000
     8  C    0.000000  -0.000000   0.000000   0.000000   0.000000   0.000000
     9  H    0.000000   0.000000  -0.000000   0.000000   0.000000  -0.000000
    10  H    0.000000  -0.000000   0.000000  -0.000000   0.000000   0.000000
    11  C   -0.000000  -0.000000   0.000000  -0.000000   0.000000   0.000000
    12  H   -0.000000   0.000000  -0.000000   0.000000  -0.000000  -0.000000
    13  H    0.000000   0.000000  -0.000000   0.000000  -0.000000  -0.000000
    14  C    0.000000  -0.000000   0.000000  -0.000000   0.000000   0.000000
    15  H    0.000000  -0.000000   0.000000  -0.000000   0.000000   0.000000
    16  H    0.000000   0.000000  -0.000000   0.000000  -0.000000  -0.000000
    17  C   -0.000000   0.000000   0.000000  -0.000000  -0.000000  -0.000000
    18  H   -0.000000  -0.000000  -0.000000   0.000000  -0.000000  -0.000000
    19  C   -0.000000  -0.000000   0.000000  -0.000000   0.000000   0.000000
    20  H    0.000000  -0.000000   0.000000  -0.000000  -0.000000  -0.000000
    21  C    0.000006   0.000006  -0.000005   0.000000  -0.000000  -0.000000
    22  H    0.000002  -0.000001  -0.000000   0.000000   0.000000  -0.000000
    23  H   -0.000001   0.000002  -0.000000   0.000000  -0.000000   0.000000
    24  C   -0.002202  -0.002194   0.000716  -0.000015   0.000008   0.000008
    25  H    0.000003   0.000393   0.000007  -0.000000   0.000002  -0.000001
    26  H    0.000385   0.000003   0.000007  -0.000000  -0.000001   0.000002
    27  C   -0.023040  -0.023051  -0.022850   0.001240  -0.002134  -0.002132
    28  H    0.001944  -0.002345  -0.002208   0.000009   0.000394  -0.000006
    29  H   -0.002345   0.001945  -0.002218   0.000010  -0.000006   0.000393
    30  C    0.379355   0.379309   0.368778  -0.019420  -0.021006  -0.021008
    31  H    0.645949  -0.023861  -0.022167  -0.002126   0.001879  -0.002226
    32  H   -0.023861   0.646282  -0.022182  -0.002129  -0.002222   0.001880
    33  C   -0.022167  -0.022182   4.726121   0.381619   0.380229   0.380236
    34  H   -0.002126  -0.002129   0.381619   0.628943  -0.021536  -0.021534
    35  H    0.001879  -0.002222   0.380229  -0.021536   0.633631  -0.021860
    36  H   -0.002226   0.001880   0.380236  -0.021534  -0.021860   0.633566
 Mulliken charges:
               1
     1  C   -0.166115
     2  H    0.052321
     3  H    0.052390
     4  H    0.054564
     5  C   -0.089232
     6  H    0.048015
     7  H    0.047756
     8  C   -0.090468
     9  H    0.045040
    10  H    0.044607
    11  C   -0.089326
    12  H    0.045497
    13  H    0.047076
    14  C   -0.099136
    15  H    0.052888
    16  H    0.056176
    17  C   -0.059374
    18  H    0.046037
    19  C   -0.059006
    20  H    0.045458
    21  C   -0.099448
    22  H    0.052684
    23  H    0.048912
    24  C   -0.087901
    25  H    0.047528
    26  H    0.048758
    27  C   -0.089730
    28  H    0.046116
    29  H    0.046232
    30  C   -0.089095
    31  H    0.048445
    32  H    0.048165
    33  C   -0.166081
    34  H    0.054939
    35  H    0.052623
    36  H    0.052682
 Sum of Mulliken charges =   0.00000
 Mulliken charges with hydrogens summed into heavy atoms:
               1
     1  C   -0.006840
     5  C    0.006540
     8  C   -0.000822
    11  C    0.003248
    14  C    0.009929
    17  C   -0.013337
    19  C   -0.013548
    21  C    0.002148
    24  C    0.008385
    27  C    0.002618
    30  C    0.007515
    33  C   -0.005837
 Electronic spatial extent (au):  <R**2>=           6918.7301
 Charge=             -0.0000 electrons
 Dipole moment (field-independent basis, Debye):
    X=             -0.0926    Y=             -0.0727    Z=             -0.0199  Tot=              0.1194
 Quadrupole moment (field-independent basis, Debye-Ang):
   XX=            -76.3593   YY=            -76.0145   ZZ=            -74.5579
   XY=             -0.0775   XZ=             -0.5344   YZ=             -0.3131
 Traceless Quadrupole moment (field-independent basis, Debye-Ang):
   XX=             -0.7154   YY=             -0.3706   ZZ=              1.0860
   XY=             -0.0775   XZ=             -0.5344   YZ=             -0.3131
 Octapole moment (field-independent basis, Debye-Ang**2):
  XXX=             -2.6536  YYY=             -0.4708  ZZZ=              0.0289  XYY=             -0.7967
  XXY=              2.3512  XXZ=              0.4756  XZZ=              0.1277  YZZ=              0.0977
  YYZ=             -0.5898  XYZ=             -0.6673
 Hexadecapole moment (field-independent basis, Debye-Ang**3):
 XXXX=          -8800.2892 YYYY=           -305.3520 ZZZZ=           -166.5340 XXXY=             27.3694
 XXXZ=            -12.9425 YYYX=              1.2468 YYYZ=             -0.9526 ZZZX=             -0.3728
 ZZZY=             -1.0119 XXYY=          -1491.7922 XXZZ=          -1456.5166 YYZZ=            -73.9942
 XXYZ=              2.7454 YYXZ=             -1.7594 ZZXY=             -4.1374
 N-N= 6.522519636871D+02 E-N=-2.379957430777D+03  KE= 4.587919226062D+02
 1\1\GINC-CN0005\SP\RHF\STO-3G\C12H24\GRAHA682\04-Dec-2017\0\\# hf/sto-
 3g geom=connectivity\\Title Card Required\\0,1\C,0,-6.854443,-0.134877
 ,-0.168414\H,0,-7.040212,-0.818328,0.677653\H,0,-6.884443,-0.743683,-1
 .088126\H,0,-7.697052,0.572652,-0.212848\C,0,-5.520363,0.56989,-0.0210
 4\H,0,-5.368713,1.273324,-0.861988\H,0,-5.523451,1.199843,0.889097\C,0
 ,-4.344023,-0.388597,0.042497\H,0,-4.335099,-1.020835,-0.868101\H,0,-4
 .48926,-1.094591,0.884904\C,0,-3.001393,0.302765,0.189464\H,0,-3.00708
 7,0.930311,1.102873\H,0,-2.850369,1.009328,-0.649702\C,0,-1.824677,-0.
 663624,0.246928\H,0,-1.800656,-1.277687,-0.673205\H,0,-1.994641,-1.373
 719,1.081199\C,0,-0.511885,0.023005,0.428088\H,0,-0.405457,0.634962,1.
 338635\C,0,0.511885,-0.023005,-0.428088\H,0,0.29297256,-0.17223911,-1.
 49800418\C,0,1.95480311,0.07734532,-0.05982408\H,0,2.0503427,0.2670374
 1,1.0260784\H,0,2.40981465,0.95465778,-0.56223639\C,0,2.75537577,-1.16
 296964,-0.4374119\H,0,2.63768821,-1.36095807,-1.52143802\H,0,2.3189712
 3,-2.04522327,0.06995256\C,0,4.23082515,-1.05518471,-0.10026569\H,0,4.
 66185119,-0.17031554,-0.61055383\H,0,4.34718217,-0.85101605,0.98314073
 \C,0,5.03304324,-2.29084316,-0.46918899\H,0,4.59689122,-3.17086141,0.0
 4105599\H,0,4.91185868,-2.49131642,-1.55100433\C,0,6.50463087,-2.16883
 069,-0.12607402\H,0,7.07269952,-3.07168125,-0.39942448\H,0,6.96710714,
 -1.31523353,-0.65041262\H,0,6.64957613,-2.0010408,0.95478319\\Version=
 ES64L-G09RevE.01\State=1-A\HF=-462.849449\RMSD=2.779e-09\Dipole=0.0311
 3,-0.0351793,0.0011874\Quadrupole=-0.4999063,-0.3729597,0.8728659,0.16
 36458,-0.3387771,0.0606906\PG=C01 [X(C12H24)]\\@


  THE LARGE PRINT GIVETH,
  AND THE SMALL PRINT TAKETH AWAY.

                     -- TOM WAITS
 Job cpu time:       0 days  0 hours  0 minutes 47.7 seconds.
 File lengths (MBytes):  RWF=      5 Int=      0 D2E=      0 Chk=      2 Scr=      1
 Normal termination of Gaussian 09 at Mon Dec  4 11:08:00 2017.
46.83user 0.84system 0:02.67elapsed 1781%CPU (0avgtext+0avgdata 428384maxresident)k
189872inputs+15800outputs (201major+25390minor)pagefaults 0swaps
