 Entering Gaussian System, Link 0=g09
 Initial command:
 /panfs/roc/msisoft/gaussian/g09.e01_mesabi/g09/l1.exe "/scratch/graha682/4575967.mesabim3.msi.umn.edu/Gau-26783.inp" -scrdir="/scratch/graha682/4575967.mesabim3.msi.umn.edu/"
 Entering Link 1 = /panfs/roc/msisoft/gaussian/g09.e01_mesabi/g09/l1.exe PID=     26784.
  
 Copyright (c) 1988,1990,1992,1993,1995,1998,2003,2009,2015,
            Gaussian, Inc.  All Rights Reserved.
  
 This is part of the Gaussian(R) 09 program.  It is based on
 the Gaussian(R) 03 system (copyright 2003, Gaussian, Inc.),
 the Gaussian(R) 98 system (copyright 1998, Gaussian, Inc.),
 the Gaussian(R) 94 system (copyright 1995, Gaussian, Inc.),
 the Gaussian 92(TM) system (copyright 1992, Gaussian, Inc.),
 the Gaussian 90(TM) system (copyright 1990, Gaussian, Inc.),
 the Gaussian 88(TM) system (copyright 1988, Gaussian, Inc.),
 the Gaussian 86(TM) system (copyright 1986, Carnegie Mellon
 University), and the Gaussian 82(TM) system (copyright 1983,
 Carnegie Mellon University). Gaussian is a federally registered
 trademark of Gaussian, Inc.
  
 This software contains proprietary and confidential information,
 including trade secrets, belonging to Gaussian, Inc.
  
 This software is provided under written license and may be
 used, copied, transmitted, or stored only in accord with that
 written license.
  
 The following legend is applicable only to US Government
 contracts under FAR:
  
                    RESTRICTED RIGHTS LEGEND
  
 Use, reproduction and disclosure by the US Government is
 subject to restrictions as set forth in subparagraphs (a)
 and (c) of the Commercial Computer Software - Restricted
 Rights clause in FAR 52.227-19.
  
 Gaussian, Inc.
 340 Quinnipiac St., Bldg. 40, Wallingford CT 06492
  
  
 ---------------------------------------------------------------
 Warning -- This program may not be used in any manner that
 competes with the business of Gaussian, Inc. or will provide
 assistance to any competitor of Gaussian, Inc.  The licensee
 of this program is prohibited from giving any competitor of
 Gaussian, Inc. access to this program.  By using this program,
 the user acknowledges that Gaussian, Inc. is engaged in the
 business of creating and licensing software in the field of
 computational chemistry and represents and warrants to the
 licensee that it is not a competitor of Gaussian, Inc. and that
 it will not use this program in any manner prohibited above.
 ---------------------------------------------------------------
  

 Cite this work as:
 Gaussian 09, Revision E.01,
 M. J. Frisch, G. W. Trucks, H. B. Schlegel, G. E. Scuseria, 
 M. A. Robb, J. R. Cheeseman, G. Scalmani, V. Barone, B. Mennucci, 
 G. A. Petersson, H. Nakatsuji, M. Caricato, X. Li, H. P. Hratchian, 
 A. F. Izmaylov, J. Bloino, G. Zheng, J. L. Sonnenberg, M. Hada, 
 M. Ehara, K. Toyota, R. Fukuda, J. Hasegawa, M. Ishida, T. Nakajima, 
 Y. Honda, O. Kitao, H. Nakai, T. Vreven, J. A. Montgomery, Jr., 
 J. E. Peralta, F. Ogliaro, M. Bearpark, J. J. Heyd, E. Brothers, 
 K. N. Kudin, V. N. Staroverov, T. Keith, R. Kobayashi, J. Normand, 
 K. Raghavachari, A. Rendell, J. C. Burant, S. S. Iyengar, J. Tomasi, 
 M. Cossi, N. Rega, J. M. Millam, M. Klene, J. E. Knox, J. B. Cross, 
 V. Bakken, C. Adamo, J. Jaramillo, R. Gomperts, R. E. Stratmann, 
 O. Yazyev, A. J. Austin, R. Cammi, C. Pomelli, J. W. Ochterski, 
 R. L. Martin, K. Morokuma, V. G. Zakrzewski, G. A. Voth, 
 P. Salvador, J. J. Dannenberg, S. Dapprich, A. D. Daniels, 
 O. Farkas, J. B. Foresman, J. V. Ortiz, J. Cioslowski, 
 and D. J. Fox, Gaussian, Inc., Wallingford CT, 2013.
 
 ******************************************
 Gaussian 09:  ES64L-G09RevE.01 30-Nov-2015
                 4-Dec-2017 
 ******************************************
 %LindaWorkers=in-cn0069
 %NProcShared=24
 Will use up to   24 processors via shared memory.
 %Mem=59800mb
 %chk=20171201_def2svp_m06_75c12h24.chk
 SetLPE:  input flags=" -workerwait 900 -opt "Tsnet.Node.lindarsharg: ssh " "
 SetLPE:    new flags=" -workerwait 900 -opt "Tsnet.Node.lindarsharg: ssh "  -nodelist 'in-cn0069'"
 Will use up to    1 processors via Linda.
 -----------------------------
 # hf/sto-3g geom=connectivity
 -----------------------------
 1/38=1,57=2/1;
 2/12=2,17=6,18=5,40=1/2;
 3/6=3,11=9,16=1,25=1,30=1/1,2,3;
 4//1;
 5/5=2,38=5/2;
 6/7=2,8=2,9=2,10=2,28=1/1;
 99/5=1,9=1/99;
 -------------------
 Title Card Required
 -------------------
 Symbolic Z-matrix:
 Charge =  0 Multiplicity = 1
 C                    -6.85444  -0.13488  -0.16841 
 H                    -7.04021  -0.81833   0.67765 
 H                    -6.88444  -0.74368  -1.08813 
 H                    -7.69705   0.57265  -0.21285 
 C                    -5.52036   0.56989  -0.02104 
 H                    -5.36871   1.27332  -0.86199 
 H                    -5.52345   1.19984   0.8891 
 C                    -4.34402  -0.3886    0.0425 
 H                    -4.3351   -1.02083  -0.8681 
 H                    -4.48926  -1.09459   0.8849 
 C                    -3.00139   0.30277   0.18946 
 H                    -3.00709   0.93031   1.10287 
 H                    -2.85037   1.00933  -0.6497 
 C                    -1.82468  -0.66362   0.24693 
 H                    -1.80066  -1.27769  -0.67321 
 H                    -1.99464  -1.37372   1.0812 
 C                    -0.51189   0.02301   0.42809 
 H                    -0.40546   0.63496   1.33864 
 C                     0.51189  -0.02301  -0.42809 
 H                     0.433     0.54544  -1.36913 
 C                     1.7633   -0.81459  -0.24088 
 H                     1.74905  -1.30608   0.75035 
 H                     2.6389   -0.13462  -0.22978 
 C                     1.97806  -1.85894  -1.32948 
 H                     1.96883  -1.36411  -2.32106 
 H                     1.1158   -2.55364  -1.34142 
 C                     3.26663  -2.6436   -1.16783 
 H                     4.12583  -1.94301  -1.15624 
 H                     3.27755  -3.13312  -0.17323 
 C                     3.48345  -3.69006  -2.24691 
 H                     2.62192  -4.38483  -2.25527 
 H                     3.46967  -3.19656  -3.2376 
 C                     4.77397  -4.46607  -2.07206 
 H                     4.91713  -5.22031  -2.86148 
 H                     5.64924  -3.79458  -2.09301 
 H                     4.79424  -4.99314  -1.10294 
 
                          Input orientation:                          
 ---------------------------------------------------------------------
 Center     Atomic      Atomic             Coordinates (Angstroms)
 Number     Number       Type             X           Y           Z
 ---------------------------------------------------------------------
      1          6           0       -6.854443   -0.134877   -0.168414
      2          1           0       -7.040212   -0.818328    0.677653
      3          1           0       -6.884443   -0.743683   -1.088126
      4          1           0       -7.697052    0.572652   -0.212848
      5          6           0       -5.520363    0.569890   -0.021040
      6          1           0       -5.368713    1.273324   -0.861988
      7          1           0       -5.523451    1.199843    0.889097
      8          6           0       -4.344023   -0.388597    0.042497
      9          1           0       -4.335099   -1.020835   -0.868101
     10          1           0       -4.489260   -1.094591    0.884904
     11          6           0       -3.001393    0.302765    0.189464
     12          1           0       -3.007087    0.930311    1.102873
     13          1           0       -2.850369    1.009328   -0.649702
     14          6           0       -1.824677   -0.663624    0.246928
     15          1           0       -1.800656   -1.277687   -0.673205
     16          1           0       -1.994641   -1.373719    1.081199
     17          6           0       -0.511885    0.023005    0.428088
     18          1           0       -0.405457    0.634962    1.338635
     19          6           0        0.511885   -0.023005   -0.428088
     20          1           0        0.433002    0.545438   -1.369132
     21          6           0        1.763305   -0.814586   -0.240876
     22          1           0        1.749050   -1.306083    0.750347
     23          1           0        2.638895   -0.134623   -0.229777
     24          6           0        1.978060   -1.858944   -1.329484
     25          1           0        1.968828   -1.364109   -2.321056
     26          1           0        1.115795   -2.553635   -1.341420
     27          6           0        3.266635   -2.643598   -1.167834
     28          1           0        4.125828   -1.943011   -1.156239
     29          1           0        3.277555   -3.133116   -0.173225
     30          6           0        3.483453   -3.690062   -2.246914
     31          1           0        2.621921   -4.384830   -2.255271
     32          1           0        3.469667   -3.196556   -3.237602
     33          6           0        4.773967   -4.466067   -2.072059
     34          1           0        4.917128   -5.220311   -2.861478
     35          1           0        5.649244   -3.794579   -2.093007
     36          1           0        4.794242   -4.993137   -1.102935
 ---------------------------------------------------------------------
                    Distance matrix (angstroms):
                    1          2          3          4          5
     1  C    0.000000
     2  H    1.103379   0.000000
     3  H    1.103365   1.774207   0.000000
     4  H    1.101164   1.777430   1.777409   0.000000
     5  C    1.515977   2.173767   2.173674   2.185125   0.000000
     6  H    2.161358   3.088594   2.533159   2.516642   1.106802
     7  H    2.161330   2.533434   3.088528   2.516385   1.106887
     8  C    2.532008   2.803128   2.803235   3.497428   1.518720
     9  H    2.760720   3.122179   2.573787   3.777735   2.157028
    10  H    2.761272   2.574224   3.122961   3.778186   2.157407
    11  C    3.894304   4.219862   4.219641   4.720583   2.541826
    12  H    4.189623   4.416407   4.757796   4.884139   2.776624
    13  H    4.192070   4.759935   4.420296   4.885884   2.777983
    14  C    5.074508   5.235577   5.233547   6.018684   3.905312
    15  H    5.205919   5.430357   5.128568   6.197029   4.204174
    16  H    5.168553   5.092062   5.386379   6.162825   4.174118
    17  C    6.372502   6.587046   6.595166   7.234607   5.058226
    18  H    6.667328   6.824143   7.054579   7.455088   5.292940
    19  C    7.371752   7.673941   7.460610   8.233334   6.074967
    20  H    7.416967   7.867535   7.435442   8.211912   6.104138
    21  C    8.644816   8.851306   8.689442   9.561567   7.417339
    22  H    8.731320   8.803086   8.844969   9.679165   7.547098
    23  H    9.493536   9.745563   9.581319  10.360132   8.192277
    24  C    9.073787   9.297350   8.935660  10.038293   7.989844
    25  H    9.164878   9.510675   8.960215  10.080914   8.069598
    26  H    8.411363   8.579534   8.206333   9.418791   7.452409
    27  C   10.475148  10.628665  10.327653  11.465543   9.426185
    28  H   11.171907  11.371391  11.075608  12.124316  10.032565
    29  H   10.566307  10.608419  10.479152  11.583449   9.546663
    30  C   11.127965  11.293692  10.840535  12.137209  10.206391
    31  H   10.593326  10.708819  10.246519  11.628815   9.789680
    32  H   11.197368  11.464848  10.855617  12.167649  10.264162
    33  C   12.554003  12.666560  12.277736  13.578353  11.642198
    34  H   13.102828  13.224253  12.746060  14.131213  12.269300
    35  H   13.169649  13.325048  12.938742  14.167968  12.169706
    36  H   12.655745  12.674929  12.427782  13.704112  11.768978
                    6          7          8          9         10
     6  H    0.000000
     7  H    1.759444   0.000000
     8  C    2.151758   2.151958   0.000000
     9  H    2.516259   3.071048   1.108600   0.000000
    10  H    3.071171   2.516743   1.108680   1.761315   0.000000
    11  C    2.766178   2.766769   1.517312   2.156185   2.156383
    12  H    3.091216   2.539771   2.156690   3.074951   2.518844
    13  H    2.541027   3.090237   2.159707   2.524615   3.076923
    14  C    4.188276   4.191160   2.542545   2.770038   2.773580
    15  H    4.390254   4.736892   2.787728   2.554870   3.112847
    16  H    4.708203   4.371799   2.751175   3.066275   2.517850
    17  C    5.178453   5.168488   3.873419   4.169733   4.156587
    18  H    5.466640   5.168659   4.270825   4.801399   4.458102
    19  C    6.037398   6.297270   4.892336   4.968152   5.280501
    20  H    5.869149   6.403684   5.068045   5.043712   5.656769
    21  C    7.457267   7.644055   6.128721   6.134043   6.359273
    22  H    7.740512   7.693386   6.202288   6.302191   6.243345
    23  H    8.154986   8.346051   6.992838   7.058996   7.278368
    24  C    8.000296   8.399461   6.634229   6.385239   6.878516
    25  H    7.932493   8.544775   6.811028   6.478303   7.215104
    26  H    7.544820   7.946282   6.034255   5.682055   6.204996
    27  C    9.487099   9.811657   8.029448   7.778789   8.171111
    28  H   10.028844  10.352271   8.694340   8.515910   8.894146
    29  H    9.728774   9.867156   8.103540   7.930768   8.099298
    30  C   10.242757  10.717745   8.798321   8.375897   8.950358
    31  H    9.889701  10.364493   8.353083   7.851168   8.441284
    32  H   10.185300  10.827472   8.927342   8.441722   9.206402
    33  C   11.716605  12.120553  10.209547   9.812962  10.291640
    34  H   12.327359  12.817600  10.841930  10.354364  10.933301
    35  H   12.189931  12.596281  10.771558  10.434613  10.906289
    36  H   11.942037  12.197376  10.296683   9.958875  10.263215
                   11         12         13         14         15
    11  C    0.000000
    12  H    1.108225   0.000000
    13  H    1.107357   1.761341   0.000000
    14  C    1.523768   2.161334   2.157489   0.000000
    15  H    2.164208   3.079803   2.516523   1.106479   0.000000
    16  H    2.149265   2.516758   3.067116   1.108662   1.767706
    17  C    2.516517   2.739447   2.757349   1.492549   2.136721
    18  H    2.858292   2.628934   3.173520   2.211862   3.106816
    19  C    3.581985   3.954215   3.524142   2.515067   2.642377
    20  H    3.779309   4.253604   3.393125   3.028299   2.966029
    21  C    4.912842   5.254233   4.977930   3.624135   3.619833
    22  H    5.046751   5.267502   5.336284   3.665748   3.824620
    23  H    5.672735   5.898064   5.622898   4.520018   4.605739
    24  C    5.636945   6.208703   5.657103   4.286569   3.879080
    25  H    5.812425   6.461222   5.625948   4.634210   4.114838
    26  H    5.239644   5.925420   5.376210   3.839449   3.252728
    27  C    7.057725   7.568918   7.143533   5.642987   5.271414
    28  H    7.592872   8.014864   7.592115   6.246137   5.983243
    29  H    7.166729   7.591876   7.412039   5.683985   5.429624
    30  C    7.995738   8.642687   8.046903   6.599608   6.018133
    31  H    7.718286   8.438815   7.849889   6.315110   5.631737
    32  H    8.115704   8.821513   8.020570   6.825524   6.167211
    33  C    9.397471   9.987286   9.493869   7.961054   7.439639
    34  H   10.124998  10.786075  10.199723   8.710770   8.090824
    35  H    9.840295  10.366788   9.869350   8.434314   7.990719
    36  H    9.512560  10.040596   9.730112   8.023522   7.581683
                   16         17         18         19         20
    16  H    0.000000
    17  C    2.139149   0.000000
    18  H    2.574214   1.102231   0.000000
    19  C    3.222584   1.335387   2.096604   0.000000
    20  H    3.947244   2.096604   2.836024   1.102231   0.000000
    21  C    4.022769   2.515067   3.049520   1.492549   2.211862
    22  H    3.758891   2.642377   2.958993   2.136721   3.106816
    23  H    4.972291   3.222584   3.510023   2.139149   2.574214
    24  C    4.672172   3.581985   4.361144   2.516517   2.858292
    25  H    5.223459   3.954215   4.798630   2.739447   2.628934
    26  H    4.115349   3.524142   4.434417   2.757349   3.173520
    27  C    5.861038   4.892336   5.524093   3.873419   4.270825
    28  H    6.541435   5.280501   5.779523   4.156587   4.458102
    29  H    5.697816   4.968152   5.481670   4.169733   4.801399
    30  C    6.815519   6.074967   6.832687   5.058226   5.292940
    31  H    6.442940   6.037398   6.876009   5.178453   5.466640
    32  H    7.199544   6.297270   7.116113   5.168488   5.168659
    33  C    8.082061   7.371752   8.029929   6.372502   6.667328
    34  H    8.838185   8.233334   8.958520   7.234607   7.455088
    35  H    8.623521   7.673941   8.249630   6.587046   6.824142
    36  H    7.997472   7.460610   8.041992   6.595166   7.054579
                   21         22         23         24         25
    21  C    0.000000
    22  H    1.106479   0.000000
    23  H    1.108662   1.767706   0.000000
    24  C    1.523768   2.164208   2.149265   0.000000
    25  H    2.161334   3.079803   2.516758   1.108225   0.000000
    26  H    2.157489   2.516523   3.067116   1.107357   1.761341
    27  C    2.542545   2.787728   2.751175   1.517312   2.156690
    28  H    2.773580   3.112847   2.517850   2.156383   2.518844
    29  H    2.770038   2.554870   3.066275   2.156185   3.074951
    30  C    3.905312   4.204174   4.174118   2.541826   2.776624
    31  H    4.188276   4.390254   4.708203   2.766178   3.091216
    32  H    4.191160   4.736892   4.371799   2.766769   2.539771
    33  C    5.074508   5.205919   5.168553   3.894304   4.189623
    34  H    6.018684   6.197029   6.162825   4.720583   4.884139
    35  H    5.235577   5.430357   5.092062   4.219862   4.416406
    36  H    5.233547   5.128568   5.386379   4.219641   4.757796
                   26         27         28         29         30
    26  H    0.000000
    27  C    2.159707   0.000000
    28  H    3.076923   1.108680   0.000000
    29  H    2.524615   1.108600   1.761315   0.000000
    30  C    2.777983   1.518720   2.157407   2.157028   0.000000
    31  H    2.541027   2.151758   3.071171   2.516259   1.106802
    32  H    3.090237   2.151958   2.516743   3.071048   1.106887
    33  C    4.192070   2.532008   2.761272   2.760720   1.515977
    34  H    4.885884   3.497428   3.778186   3.777735   2.185125
    35  H    4.759935   2.803128   2.574224   3.122179   2.173766
    36  H    4.420296   2.803235   3.122961   2.573787   2.173674
                   31         32         33         34         35
    31  H    0.000000
    32  H    1.759444   0.000000
    33  C    2.161358   2.161330   0.000000
    34  H    2.516642   2.516385   1.101164   0.000000
    35  H    3.088593   2.533433   1.103378   1.777429   0.000000
    36  H    2.533159   3.088528   1.103365   1.777409   1.774207
                   36
    36  H    0.000000
 Stoichiometry    C12H24
 Framework group  C1[X(C12H24)]
 Deg. of freedom   102
 Full point group                 C1      NOp   1
 Largest Abelian subgroup         C1      NOp   1
 Largest concise Abelian subgroup C1      NOp   1
                         Standard orientation:                         
 ---------------------------------------------------------------------
 Center     Atomic      Atomic             Coordinates (Angstroms)
 Number     Number       Type             X           Y           Z
 ---------------------------------------------------------------------
      1          6           0        6.254045   -1.413940    0.036827
      2          1           0        6.338817   -1.633259   -1.041207
      3          1           0        5.907310   -2.338892    0.528409
      4          1           0        7.267348   -1.200572    0.411331
      5          6           0        5.295545   -0.266853    0.289124
      6          1           0        5.250032   -0.042541    1.372002
      7          1           0        5.678380    0.657549   -0.184287
      8          6           0        3.891311   -0.540787   -0.220385
      9          1           0        3.502227   -1.464949    0.252406
     10          1           0        3.930290   -0.763956   -1.305671
     11          6           0        2.920220    0.598791    0.025744
     12          1           0        3.305203    1.521798   -0.451758
     13          1           0        2.876684    0.826177    1.108629
     14          6           0        1.511823    0.315891   -0.482446
     15          1           0        1.113434   -0.592429    0.007997
     16          1           0        1.570711    0.076049   -1.563251
     17          6           0        0.572654    1.456096   -0.268913
     18          1           0        0.848454    2.408979   -0.749394
     19          6           0       -0.538468    1.417345    0.470794
     20          1           0       -0.436188    1.398066    1.568100
     21          6           0       -1.932059    1.362927   -0.060848
     22          1           0       -1.912977    1.430543   -1.165094
     23          1           0       -2.501062    2.248366    0.287527
     24          6           0       -2.685128    0.108379    0.364435
     25          1           0       -2.681483    0.034118    1.470164
     26          1           0       -2.133650   -0.783964    0.009704
     27          6           0       -4.115087    0.061955   -0.140836
     28          1           0       -4.661755    0.957626    0.217074
     29          1           0       -4.117906    0.142513   -1.246501
     30          6           0       -4.869092   -1.189009    0.275188
     31          1           0       -4.317680   -2.079455   -0.082667
     32          1           0       -4.861556   -1.265682    1.379391
     33          6           0       -6.295495   -1.221638   -0.237157
     34          1           0       -6.828943   -2.133828    0.072524
     35          1           0       -6.872840   -0.358031    0.134727
     36          1           0       -6.324467   -1.179171   -1.339324
 ---------------------------------------------------------------------
 Rotational constants (GHZ):      2.3170917      0.1850249      0.1752157
 Standard basis: STO-3G (5D, 7F)
 There are    84 symmetry adapted cartesian basis functions of A   symmetry.
 There are    84 symmetry adapted basis functions of A   symmetry.
    84 basis functions,   252 primitive gaussians,    84 cartesian basis functions
    48 alpha electrons       48 beta electrons
       nuclear repulsion energy       658.4974536922 Hartrees.
 NAtoms=   36 NActive=   36 NUniq=   36 SFac= 1.00D+00 NAtFMM=   60 NAOKFM=F Big=F
 Integral buffers will be    131072 words long.
 Raffenetti 1 integral format.
 Two-electron integral symmetry is turned on.
 One-electron integrals computed using PRISM.
 NBasis=    84 RedAO= T EigKep=  1.87D-01  NBF=    84
 NBsUse=    84 1.00D-06 EigRej= -1.00D+00 NBFU=    84
 ExpMin= 1.69D-01 ExpMax= 7.16D+01 ExpMxC= 7.16D+01 IAcc=1 IRadAn=         1 AccDes= 0.00D+00
 Harris functional with IExCor=  205 and IRadAn=       1 diagonalized for initial guess.
 HarFok:  IExCor=  205 AccDes= 0.00D+00 IRadAn=         1 IDoV= 1 UseB2=F ITyADJ=14
 ICtDFT=  3500011 ScaDFX=  1.000000  1.000000  1.000000  1.000000
 FoFCou: FMM=F IPFlag=           0 FMFlag=      100000 FMFlg1=           0
         NFxFlg=           0 DoJE=T BraDBF=F KetDBF=T FulRan=T
         wScrn=  0.000000 ICntrl=     500 IOpCl=  0 I1Cent=   200000004 NGrid=           0
         NMat0=    1 NMatS0=      1 NMatT0=    0 NMatD0=    1 NMtDS0=    0 NMtDT0=    0
 Petite list used in FoFCou.
 Keep R1 ints in memory in canonical form, NReq=7309311.
 Requested convergence on RMS density matrix=1.00D-08 within 128 cycles.
 Requested convergence on MAX density matrix=1.00D-06.
 Requested convergence on             energy=1.00D-06.
 No special actions if energy rises.
 SCF Done:  E(RHF) =  -462.723399514     A.U. after   12 cycles
            NFock= 12  Conv=0.84D-08     -V/T= 2.0081

 **********************************************************************

            Population analysis using the SCF density.

 **********************************************************************

 Orbital symmetries:
       Occupied  (A) (A) (A) (A) (A) (A) (A) (A) (A) (A) (A) (A)
                 (A) (A) (A) (A) (A) (A) (A) (A) (A) (A) (A) (A)
                 (A) (A) (A) (A) (A) (A) (A) (A) (A) (A) (A) (A)
                 (A) (A) (A) (A) (A) (A) (A) (A) (A) (A) (A) (A)
       Virtual   (A) (A) (A) (A) (A) (A) (A) (A) (A) (A) (A) (A)
                 (A) (A) (A) (A) (A) (A) (A) (A) (A) (A) (A) (A)
                 (A) (A) (A) (A) (A) (A) (A) (A) (A) (A) (A) (A)
 The electronic state is 1-A.
 Alpha  occ. eigenvalues --  -11.04332 -11.04240 -11.04210 -11.04107 -11.04008
 Alpha  occ. eigenvalues --  -11.03821 -11.03482 -11.03397 -11.03310 -11.03229
 Alpha  occ. eigenvalues --  -10.99495 -10.99414  -1.05590  -1.04501  -1.01553
 Alpha  occ. eigenvalues --   -0.98535  -0.94252  -0.89365  -0.84801  -0.79140
 Alpha  occ. eigenvalues --   -0.76470  -0.75094  -0.74780  -0.68420  -0.62088
 Alpha  occ. eigenvalues --   -0.61396  -0.58040  -0.57190  -0.56004  -0.55051
 Alpha  occ. eigenvalues --   -0.53420  -0.53103  -0.51708  -0.51207  -0.49617
 Alpha  occ. eigenvalues --   -0.48408  -0.47079  -0.46170  -0.45498  -0.43734
 Alpha  occ. eigenvalues --   -0.42985  -0.42625  -0.42379  -0.41833  -0.41678
 Alpha  occ. eigenvalues --   -0.41492  -0.40209  -0.18147
 Alpha virt. eigenvalues --    0.20886   0.57294   0.57885   0.58076   0.58803
 Alpha virt. eigenvalues --    0.62710   0.63181   0.66222   0.66537   0.67066
 Alpha virt. eigenvalues --    0.67362   0.68503   0.69049   0.69471   0.70740
 Alpha virt. eigenvalues --    0.71515   0.72788   0.73903   0.73980   0.74374
 Alpha virt. eigenvalues --    0.75067   0.75683   0.75999   0.76572   0.77851
 Alpha virt. eigenvalues --    0.78088   0.78754   0.79892   0.80311   0.80691
 Alpha virt. eigenvalues --    0.81036   0.81669   0.82680   0.83509   0.88982
 Alpha virt. eigenvalues --    1.06638
          Condensed to atoms (all electrons):
               1          2          3          4          5          6
     1  C    4.726563   0.380217   0.380224   0.381534   0.368649  -0.022222
     2  H    0.380217   0.634241  -0.021883  -0.021574  -0.020996   0.001880
     3  H    0.380224  -0.021883   0.634144  -0.021571  -0.020997  -0.002226
     4  H    0.381534  -0.021574  -0.021571   0.629802  -0.019437  -0.002123
     5  C    0.368649  -0.020996  -0.020997  -0.019437   4.726630   0.379361
     6  H   -0.022222   0.001880  -0.002226  -0.002123   0.379361   0.646800
     7  H   -0.022234  -0.002222   0.001881  -0.002127   0.379307  -0.023887
     8  C   -0.022901  -0.002138  -0.002136   0.001243   0.367711  -0.023009
     9  H   -0.002213  -0.000005   0.000393   0.000009  -0.022809  -0.002347
    10  H   -0.002208   0.000393  -0.000005   0.000009  -0.022788   0.001946
    11  C    0.000720   0.000008   0.000008  -0.000015  -0.021721  -0.002215
    12  H    0.000006   0.000002  -0.000001  -0.000000  -0.002147   0.000005
    13  H    0.000007  -0.000001   0.000002  -0.000000  -0.002142   0.000388
    14  C   -0.000005  -0.000000  -0.000000   0.000000   0.000704   0.000007
    15  H   -0.000000   0.000000  -0.000000   0.000000   0.000007   0.000002
    16  H   -0.000000  -0.000000   0.000000   0.000000   0.000004  -0.000001
    17  C    0.000000   0.000000   0.000000  -0.000000  -0.000005  -0.000000
    18  H   -0.000000  -0.000000  -0.000000   0.000000   0.000000   0.000000
    19  C   -0.000000  -0.000000  -0.000000   0.000000   0.000000   0.000000
    20  H   -0.000000  -0.000000  -0.000000   0.000000   0.000000   0.000000
    21  C    0.000000   0.000000   0.000000  -0.000000  -0.000000  -0.000000
    22  H    0.000000   0.000000   0.000000  -0.000000  -0.000000  -0.000000
    23  H   -0.000000  -0.000000  -0.000000   0.000000   0.000000   0.000000
    24  C    0.000000   0.000000   0.000000  -0.000000  -0.000000  -0.000000
    25  H   -0.000000  -0.000000  -0.000000   0.000000   0.000000   0.000000
    26  H   -0.000000  -0.000000  -0.000000   0.000000   0.000000   0.000000
    27  C   -0.000000   0.000000  -0.000000   0.000000   0.000000   0.000000
    28  H    0.000000   0.000000   0.000000   0.000000  -0.000000  -0.000000
    29  H   -0.000000  -0.000000  -0.000000   0.000000   0.000000   0.000000
    30  C    0.000000   0.000000  -0.000000   0.000000  -0.000000  -0.000000
    31  H    0.000000   0.000000   0.000000  -0.000000  -0.000000  -0.000000
    32  H    0.000000  -0.000000  -0.000000   0.000000  -0.000000  -0.000000
    33  C    0.000000   0.000000   0.000000   0.000000   0.000000   0.000000
    34  H    0.000000   0.000000   0.000000   0.000000   0.000000   0.000000
    35  H    0.000000   0.000000   0.000000   0.000000   0.000000   0.000000
    36  H    0.000000   0.000000   0.000000   0.000000   0.000000   0.000000
               7          8          9         10         11         12
     1  C   -0.022234  -0.022901  -0.002213  -0.002208   0.000720   0.000006
     2  H   -0.002222  -0.002138  -0.000005   0.000393   0.000008   0.000002
     3  H    0.001881  -0.002136   0.000393  -0.000005   0.000008  -0.000001
     4  H   -0.002127   0.001243   0.000009   0.000009  -0.000015  -0.000000
     5  C    0.379307   0.367711  -0.022809  -0.022788  -0.021721  -0.002147
     6  H   -0.023887  -0.023009  -0.002347   0.001946  -0.002215   0.000005
     7  H    0.647099  -0.023016   0.001947  -0.002345  -0.002207   0.000392
     8  C   -0.023016   4.742178   0.378454   0.378353   0.367438  -0.022912
     9  H    0.001947   0.378454   0.651380  -0.023974  -0.022778   0.001934
    10  H   -0.002345   0.378353  -0.023974   0.652178  -0.022759  -0.002340
    11  C   -0.002207   0.367438  -0.022778  -0.022759   4.748570   0.378952
    12  H    0.000392  -0.022912   0.001934  -0.002340   0.378952   0.650945
    13  H    0.000005  -0.022729  -0.002286   0.001924   0.379737  -0.023983
    14  C    0.000007  -0.022017  -0.002237  -0.002244   0.355475  -0.022366
    15  H   -0.000001  -0.002038   0.000369  -0.000001  -0.021565   0.001882
    16  H    0.000002  -0.002165   0.000009   0.000459  -0.023705  -0.002318
    17  C   -0.000000   0.000795   0.000009   0.000007  -0.025236  -0.002513
    18  H   -0.000000  -0.000019  -0.000001   0.000001   0.000029   0.000434
    19  C    0.000000  -0.000009  -0.000000  -0.000000   0.001024   0.000011
    20  H    0.000000  -0.000001  -0.000000  -0.000000   0.000076   0.000001
    21  C   -0.000000   0.000000   0.000000   0.000000  -0.000007  -0.000000
    22  H   -0.000000   0.000000  -0.000000   0.000000  -0.000001  -0.000000
    23  H    0.000000  -0.000000  -0.000000  -0.000000   0.000000   0.000000
    24  C   -0.000000   0.000000   0.000000  -0.000000  -0.000000  -0.000000
    25  H    0.000000  -0.000000   0.000000  -0.000000   0.000000   0.000000
    26  H    0.000000  -0.000000  -0.000000  -0.000000   0.000000   0.000000
    27  C    0.000000  -0.000000  -0.000000   0.000000   0.000000  -0.000000
    28  H   -0.000000   0.000000  -0.000000   0.000000   0.000000  -0.000000
    29  H    0.000000  -0.000000  -0.000000  -0.000000   0.000000   0.000000
    30  C   -0.000000   0.000000   0.000000  -0.000000  -0.000000   0.000000
    31  H   -0.000000   0.000000   0.000000   0.000000  -0.000000  -0.000000
    32  H    0.000000   0.000000   0.000000  -0.000000  -0.000000  -0.000000
    33  C    0.000000  -0.000000  -0.000000   0.000000   0.000000  -0.000000
    34  H    0.000000   0.000000   0.000000  -0.000000  -0.000000   0.000000
    35  H    0.000000   0.000000   0.000000   0.000000   0.000000  -0.000000
    36  H    0.000000   0.000000  -0.000000   0.000000   0.000000  -0.000000
              13         14         15         16         17         18
     1  C    0.000007  -0.000005  -0.000000  -0.000000   0.000000  -0.000000
     2  H   -0.000001  -0.000000   0.000000  -0.000000   0.000000  -0.000000
     3  H    0.000002  -0.000000  -0.000000   0.000000   0.000000  -0.000000
     4  H   -0.000000   0.000000   0.000000   0.000000  -0.000000   0.000000
     5  C   -0.002142   0.000704   0.000007   0.000004  -0.000005   0.000000
     6  H    0.000388   0.000007   0.000002  -0.000001  -0.000000   0.000000
     7  H    0.000005   0.000007  -0.000001   0.000002  -0.000000  -0.000000
     8  C   -0.022729  -0.022017  -0.002038  -0.002165   0.000795  -0.000019
     9  H   -0.002286  -0.002237   0.000369   0.000009   0.000009  -0.000001
    10  H    0.001924  -0.002244  -0.000001   0.000459   0.000007   0.000001
    11  C    0.379737   0.355475  -0.021565  -0.023705  -0.025236   0.000029
    12  H   -0.023983  -0.022366   0.001882  -0.002318  -0.002513   0.000434
    13  H    0.648834  -0.022435  -0.002413   0.001891  -0.002509  -0.000016
    14  C   -0.022435   4.732983   0.379668   0.380386   0.374900  -0.027215
    15  H   -0.002413   0.379668   0.640117  -0.023822  -0.022489   0.001683
    16  H    0.001891   0.380386  -0.023822   0.633848  -0.021969  -0.003415
    17  C   -0.002509   0.374900  -0.022489  -0.021969   4.919253   0.374016
    18  H   -0.000016  -0.027215   0.001683  -0.003415   0.374016   0.639593
    19  C    0.000041  -0.028035  -0.004278  -0.000020   0.531833  -0.033322
    20  H    0.000055  -0.002035   0.000218  -0.000010  -0.032929   0.002852
    21  C   -0.000001   0.001107   0.000040  -0.000016  -0.028796  -0.001847
    22  H   -0.000000   0.000028   0.000015  -0.000003  -0.004309   0.000246
    23  H    0.000000  -0.000022  -0.000002  -0.000003   0.001716   0.000103
    24  C    0.000000  -0.000012  -0.000010   0.000011  -0.000182  -0.000005
    25  H    0.000000  -0.000000  -0.000000   0.000000   0.000012  -0.000000
    26  H    0.000000  -0.000021   0.000004  -0.000002   0.000116   0.000002
    27  C   -0.000000   0.000000   0.000000  -0.000000   0.000000  -0.000000
    28  H   -0.000000  -0.000000   0.000000  -0.000000  -0.000000   0.000000
    29  H   -0.000000   0.000000  -0.000000  -0.000000   0.000001  -0.000000
    30  C    0.000000  -0.000000  -0.000000   0.000000  -0.000000   0.000000
    31  H    0.000000   0.000000   0.000000   0.000000  -0.000000  -0.000000
    32  H    0.000000  -0.000000  -0.000000   0.000000   0.000000  -0.000000
    33  C   -0.000000   0.000000   0.000000  -0.000000   0.000000  -0.000000
    34  H    0.000000  -0.000000  -0.000000   0.000000  -0.000000   0.000000
    35  H   -0.000000   0.000000   0.000000  -0.000000  -0.000000  -0.000000
    36  H   -0.000000   0.000000   0.000000  -0.000000   0.000000  -0.000000
              19         20         21         22         23         24
     1  C   -0.000000  -0.000000   0.000000   0.000000  -0.000000   0.000000
     2  H   -0.000000  -0.000000   0.000000   0.000000  -0.000000   0.000000
     3  H   -0.000000  -0.000000   0.000000   0.000000  -0.000000   0.000000
     4  H    0.000000   0.000000  -0.000000  -0.000000   0.000000  -0.000000
     5  C    0.000000   0.000000  -0.000000  -0.000000   0.000000  -0.000000
     6  H    0.000000   0.000000  -0.000000  -0.000000   0.000000  -0.000000
     7  H    0.000000   0.000000  -0.000000  -0.000000   0.000000  -0.000000
     8  C   -0.000009  -0.000001   0.000000   0.000000  -0.000000   0.000000
     9  H   -0.000000  -0.000000   0.000000  -0.000000  -0.000000   0.000000
    10  H   -0.000000  -0.000000   0.000000   0.000000  -0.000000  -0.000000
    11  C    0.001024   0.000076  -0.000007  -0.000001   0.000000  -0.000000
    12  H    0.000011   0.000001  -0.000000  -0.000000   0.000000  -0.000000
    13  H    0.000041   0.000055  -0.000001  -0.000000   0.000000   0.000000
    14  C   -0.028035  -0.002035   0.001107   0.000028  -0.000022  -0.000012
    15  H   -0.004278   0.000218   0.000040   0.000015  -0.000002  -0.000010
    16  H   -0.000020  -0.000010  -0.000016  -0.000003  -0.000003   0.000011
    17  C    0.531833  -0.032929  -0.028796  -0.004309   0.001716  -0.000182
    18  H   -0.033322   0.002852  -0.001847   0.000246   0.000103  -0.000005
    19  C    4.918544   0.372617   0.375819  -0.022647  -0.025761  -0.022110
    20  H    0.372617   0.641030  -0.027108   0.001682   0.000350  -0.003032
    21  C    0.375819  -0.027108   4.734953   0.379675   0.367944   0.366493
    22  H   -0.022647   0.001682   0.379675   0.639727  -0.022297  -0.022748
    23  H   -0.025761   0.000350   0.367944  -0.022297   0.660199  -0.023868
    24  C   -0.022110  -0.003032   0.366493  -0.022748  -0.023868   4.737546
    25  H   -0.002255   0.000420  -0.022500   0.001888  -0.002211   0.378468
    26  H   -0.001324   0.000053  -0.023171  -0.002396   0.002012   0.377965
    27  C    0.000680   0.000018  -0.021271  -0.001966  -0.002615   0.369104
    28  H    0.000007   0.000001  -0.002188  -0.000000   0.000437  -0.022810
    29  H    0.000007  -0.000000  -0.002161   0.000387  -0.000005  -0.022812
    30  C   -0.000004  -0.000000   0.000681   0.000005   0.000013  -0.021560
    31  H   -0.000000  -0.000000   0.000006   0.000002  -0.000001  -0.002198
    32  H   -0.000000  -0.000000   0.000006  -0.000001   0.000002  -0.002190
    33  C    0.000000   0.000000  -0.000004  -0.000000  -0.000000   0.000714
    34  H   -0.000000  -0.000000   0.000000   0.000000   0.000000  -0.000015
    35  H    0.000000   0.000000  -0.000000   0.000000  -0.000000   0.000008
    36  H    0.000000  -0.000000  -0.000000  -0.000000   0.000000   0.000008
              25         26         27         28         29         30
     1  C   -0.000000  -0.000000  -0.000000   0.000000  -0.000000   0.000000
     2  H   -0.000000  -0.000000   0.000000   0.000000  -0.000000   0.000000
     3  H   -0.000000  -0.000000  -0.000000   0.000000  -0.000000  -0.000000
     4  H    0.000000   0.000000   0.000000   0.000000   0.000000   0.000000
     5  C    0.000000   0.000000   0.000000  -0.000000   0.000000  -0.000000
     6  H    0.000000   0.000000   0.000000  -0.000000   0.000000  -0.000000
     7  H    0.000000   0.000000   0.000000  -0.000000   0.000000  -0.000000
     8  C   -0.000000  -0.000000  -0.000000   0.000000  -0.000000   0.000000
     9  H    0.000000  -0.000000  -0.000000  -0.000000  -0.000000   0.000000
    10  H   -0.000000  -0.000000   0.000000   0.000000  -0.000000  -0.000000
    11  C    0.000000   0.000000   0.000000   0.000000   0.000000  -0.000000
    12  H    0.000000   0.000000  -0.000000  -0.000000   0.000000   0.000000
    13  H    0.000000   0.000000  -0.000000  -0.000000  -0.000000   0.000000
    14  C   -0.000000  -0.000021   0.000000  -0.000000   0.000000  -0.000000
    15  H   -0.000000   0.000004   0.000000   0.000000  -0.000000  -0.000000
    16  H    0.000000  -0.000002  -0.000000  -0.000000  -0.000000   0.000000
    17  C    0.000012   0.000116   0.000000  -0.000000   0.000001  -0.000000
    18  H   -0.000000   0.000002  -0.000000   0.000000  -0.000000   0.000000
    19  C   -0.002255  -0.001324   0.000680   0.000007   0.000007  -0.000004
    20  H    0.000420   0.000053   0.000018   0.000001  -0.000000  -0.000000
    21  C   -0.022500  -0.023171  -0.021271  -0.002188  -0.002161   0.000681
    22  H    0.001888  -0.002396  -0.001966  -0.000000   0.000387   0.000005
    23  H   -0.002211   0.002012  -0.002615   0.000437  -0.000005   0.000013
    24  C    0.378468   0.377965   0.369104  -0.022810  -0.022812  -0.021560
    25  H    0.645317  -0.023697  -0.022636  -0.002342   0.001931  -0.002164
    26  H   -0.023697   0.646237  -0.022483   0.001922  -0.002272  -0.002171
    27  C   -0.022636  -0.022483   4.737576   0.378497   0.378347   0.368038
    28  H   -0.002342   0.001922   0.378497   0.647780  -0.023782  -0.022661
    29  H    0.001931  -0.002272   0.378347  -0.023782   0.648221  -0.022656
    30  C   -0.002164  -0.002171   0.368038  -0.022661  -0.022656   4.725436
    31  H    0.000002   0.000385  -0.023063   0.001943  -0.002345   0.379343
    32  H    0.000393   0.000003  -0.023066  -0.002345   0.001945   0.379321
    33  C    0.000007   0.000007  -0.022821  -0.002207  -0.002220   0.368803
    34  H   -0.000000  -0.000000   0.001239   0.000009   0.000010  -0.019412
    35  H    0.000002  -0.000001  -0.002132   0.000394  -0.000006  -0.021009
    36  H   -0.000001   0.000002  -0.002131  -0.000006   0.000393  -0.021015
              31         32         33         34         35         36
     1  C    0.000000   0.000000   0.000000   0.000000   0.000000   0.000000
     2  H    0.000000  -0.000000   0.000000   0.000000   0.000000   0.000000
     3  H    0.000000  -0.000000   0.000000   0.000000   0.000000   0.000000
     4  H   -0.000000   0.000000   0.000000   0.000000   0.000000   0.000000
     5  C   -0.000000  -0.000000   0.000000   0.000000   0.000000   0.000000
     6  H   -0.000000  -0.000000   0.000000   0.000000   0.000000   0.000000
     7  H   -0.000000   0.000000   0.000000   0.000000   0.000000   0.000000
     8  C    0.000000   0.000000  -0.000000   0.000000   0.000000   0.000000
     9  H    0.000000   0.000000  -0.000000   0.000000   0.000000  -0.000000
    10  H    0.000000  -0.000000   0.000000  -0.000000   0.000000   0.000000
    11  C   -0.000000  -0.000000   0.000000  -0.000000   0.000000   0.000000
    12  H   -0.000000  -0.000000  -0.000000   0.000000  -0.000000  -0.000000
    13  H    0.000000   0.000000  -0.000000   0.000000  -0.000000  -0.000000
    14  C    0.000000  -0.000000   0.000000  -0.000000   0.000000   0.000000
    15  H    0.000000  -0.000000   0.000000  -0.000000   0.000000   0.000000
    16  H    0.000000   0.000000  -0.000000   0.000000  -0.000000  -0.000000
    17  C   -0.000000   0.000000   0.000000  -0.000000  -0.000000   0.000000
    18  H   -0.000000  -0.000000  -0.000000   0.000000  -0.000000  -0.000000
    19  C   -0.000000  -0.000000   0.000000  -0.000000   0.000000   0.000000
    20  H   -0.000000  -0.000000   0.000000  -0.000000   0.000000  -0.000000
    21  C    0.000006   0.000006  -0.000004   0.000000  -0.000000  -0.000000
    22  H    0.000002  -0.000001  -0.000000   0.000000   0.000000  -0.000000
    23  H   -0.000001   0.000002  -0.000000   0.000000  -0.000000   0.000000
    24  C   -0.002198  -0.002190   0.000714  -0.000015   0.000008   0.000008
    25  H    0.000002   0.000393   0.000007  -0.000000   0.000002  -0.000001
    26  H    0.000385   0.000003   0.000007  -0.000000  -0.000001   0.000002
    27  C   -0.023063  -0.023066  -0.022821   0.001239  -0.002132  -0.002131
    28  H    0.001943  -0.002345  -0.002207   0.000009   0.000394  -0.000006
    29  H   -0.002345   0.001945  -0.002220   0.000010  -0.000006   0.000393
    30  C    0.379343   0.379321   0.368803  -0.019412  -0.021009  -0.021015
    31  H    0.645775  -0.023853  -0.022150  -0.002127   0.001879  -0.002226
    32  H   -0.023853   0.645869  -0.022160  -0.002129  -0.002222   0.001879
    33  C   -0.022150  -0.022160   4.725962   0.381646   0.380239   0.380240
    34  H   -0.002127  -0.002129   0.381646   0.628568  -0.021518  -0.021519
    35  H    0.001879  -0.002222   0.380239  -0.021518   0.633314  -0.021849
    36  H   -0.002226   0.001879   0.380240  -0.021519  -0.021849   0.633332
 Mulliken charges:
               1
     1  C   -0.166137
     2  H    0.052078
     3  H    0.052166
     4  H    0.054249
     5  C   -0.089329
     6  H    0.047641
     7  H    0.047401
     8  C   -0.091083
     9  H    0.044147
    10  H    0.043394
    11  C   -0.089829
    12  H    0.044015
    13  H    0.045633
    14  C   -0.096620
    15  H    0.052614
    16  H    0.060839
    17  C   -0.061720
    18  H    0.046881
    19  C   -0.060817
    20  H    0.045743
    21  C   -0.097654
    22  H    0.052714
    23  H    0.044008
    24  C   -0.086763
    25  H    0.049367
    26  H    0.048831
    27  C   -0.089316
    28  H    0.047352
    29  H    0.047020
    30  C   -0.088990
    31  H    0.048627
    32  H    0.048549
    33  C   -0.166055
    34  H    0.055247
    35  H    0.052902
    36  H    0.052892
 Sum of Mulliken charges =  -0.00000
 Mulliken charges with hydrogens summed into heavy atoms:
               1
     1  C   -0.007643
     5  C    0.005714
     8  C   -0.003542
    11  C   -0.000181
    14  C    0.016832
    17  C   -0.014838
    19  C   -0.015074
    21  C   -0.000932
    24  C    0.011435
    27  C    0.005056
    30  C    0.008186
    33  C   -0.005014
 Electronic spatial extent (au):  <R**2>=           6336.3414
 Charge=              0.0000 electrons
 Dipole moment (field-independent basis, Debye):
    X=             -0.2223    Y=             -0.1600    Z=             -0.0385  Tot=              0.2765
 Quadrupole moment (field-independent basis, Debye-Ang):
   XX=            -76.3181   YY=            -76.1485   ZZ=            -74.8480
   XY=              0.4151   XZ=             -0.6561   YZ=              0.0890
 Traceless Quadrupole moment (field-independent basis, Debye-Ang):
   XX=             -0.5465   YY=             -0.3770   ZZ=              0.9235
   XY=              0.4151   XZ=             -0.6561   YZ=              0.0890
 Octapole moment (field-independent basis, Debye-Ang**2):
  XXX=             -5.7930  YYY=             -0.4522  ZZZ=             -0.2754  XYY=             -0.7132
  XXY=              5.1705  XXZ=              1.0851  XZZ=              0.2154  YZZ=              0.1394
  YYZ=              0.3262  XYZ=             -1.3576
 Hexadecapole moment (field-independent basis, Debye-Ang**3):
 XXXX=          -7669.1757 YYYY=           -600.0779 ZZZZ=           -175.3613 XXXY=             14.1084
 XXXZ=            -14.5659 YYYX=              8.3008 YYYZ=             -3.1737 ZZZX=             -0.5092
 ZZZY=              3.0954 XXYY=          -1366.5007 XXZZ=          -1282.5749 YYZZ=           -131.3355
 XXYZ=             -1.6607 YYXZ=             -2.9077 ZZXY=             -1.1432
 N-N= 6.584974536922D+02 E-N=-2.392618162131D+03  KE= 4.589885811321D+02
 1\1\GINC-CN0069\SP\RHF\STO-3G\C12H24\GRAHA682\04-Dec-2017\0\\# hf/sto-
 3g geom=connectivity\\Title Card Required\\0,1\C,0,-6.854443,-0.134877
 ,-0.168414\H,0,-7.040212,-0.818328,0.677653\H,0,-6.884443,-0.743683,-1
 .088126\H,0,-7.697052,0.572652,-0.212848\C,0,-5.520363,0.56989,-0.0210
 4\H,0,-5.368713,1.273324,-0.861988\H,0,-5.523451,1.199843,0.889097\C,0
 ,-4.344023,-0.388597,0.042497\H,0,-4.335099,-1.020835,-0.868101\H,0,-4
 .48926,-1.094591,0.884904\C,0,-3.001393,0.302765,0.189464\H,0,-3.00708
 7,0.930311,1.102873\H,0,-2.850369,1.009328,-0.649702\C,0,-1.824677,-0.
 663624,0.246928\H,0,-1.800656,-1.277687,-0.673205\H,0,-1.994641,-1.373
 719,1.081199\C,0,-0.511885,0.023005,0.428088\H,0,-0.405457,0.634962,1.
 338635\C,0,0.511885,-0.023005,-0.428088\H,0,0.43300155,0.54543801,-1.3
 6913214\C,0,1.76330498,-0.81458625,-0.24087595\H,0,1.74905034,-1.30608
 333,0.75034678\H,0,2.638895,-0.13462322,-0.2297774\C,0,1.97806029,-1.8
 5894425,-1.32948372\H,0,1.96882837,-1.36410919,-2.32105592\H,0,1.11579
 506,-2.55363503,-1.34142038\C,0,3.26663453,-2.64359822,-1.16783417\H,0
 ,4.12582838,-1.94301105,-1.15623877\H,0,3.27755492,-3.13311563,-0.1732
 2535\C,0,3.48345314,-3.69006163,-2.24691437\H,0,2.62192121,-4.38483033
 ,-2.25527133\H,0,3.46966705,-3.1965562,-3.237602\C,0,4.77396731,-4.466
 0667,-2.07205895\H,0,4.9171276,-5.22031052,-2.86147835\H,0,5.64924353,
 -3.79457871,-2.09300685\H,0,4.79424198,-4.99313685,-1.10293519\\Versio
 n=ES64L-G09RevE.01\State=1-A\HF=-462.7233995\RMSD=8.435e-09\Dipole=0.0
 557703,-0.0878186,-0.0318631\Quadrupole=-0.588088,-0.0005653,0.5886533
 ,0.1010814,-0.5208631,-0.2596846\PG=C01 [X(C12H24)]\\@


 THE MORE POWERFUL THE METHOD, THE MORE CATASTROPHIC THE ERRORS.
     -- M.D. KAMEN
 Job cpu time:       0 days  0 hours  1 minutes 47.3 seconds.
 File lengths (MBytes):  RWF=      5 Int=      0 D2E=      0 Chk=      2 Scr=      1
 Normal termination of Gaussian 09 at Mon Dec  4 11:08:03 2017.
106.79user 0.55system 0:04.99elapsed 2149%CPU (0avgtext+0avgdata 428380maxresident)k
0inputs+15968outputs (0major+24157minor)pagefaults 0swaps
