 Entering Gaussian System, Link 0=g09
 Initial command:
 /panfs/roc/msisoft/gaussian/g09.e01_mesabi/g09/l1.exe "/scratch/graha682/4575976.mesabim3.msi.umn.edu/Gau-32550.inp" -scrdir="/scratch/graha682/4575976.mesabim3.msi.umn.edu/"
 Entering Link 1 = /panfs/roc/msisoft/gaussian/g09.e01_mesabi/g09/l1.exe PID=     32551.
  
 Copyright (c) 1988,1990,1992,1993,1995,1998,2003,2009,2015,
            Gaussian, Inc.  All Rights Reserved.
  
 This is part of the Gaussian(R) 09 program.  It is based on
 the Gaussian(R) 03 system (copyright 2003, Gaussian, Inc.),
 the Gaussian(R) 98 system (copyright 1998, Gaussian, Inc.),
 the Gaussian(R) 94 system (copyright 1995, Gaussian, Inc.),
 the Gaussian 92(TM) system (copyright 1992, Gaussian, Inc.),
 the Gaussian 90(TM) system (copyright 1990, Gaussian, Inc.),
 the Gaussian 88(TM) system (copyright 1988, Gaussian, Inc.),
 the Gaussian 86(TM) system (copyright 1986, Carnegie Mellon
 University), and the Gaussian 82(TM) system (copyright 1983,
 Carnegie Mellon University). Gaussian is a federally registered
 trademark of Gaussian, Inc.
  
 This software contains proprietary and confidential information,
 including trade secrets, belonging to Gaussian, Inc.
  
 This software is provided under written license and may be
 used, copied, transmitted, or stored only in accord with that
 written license.
  
 The following legend is applicable only to US Government
 contracts under FAR:
  
                    RESTRICTED RIGHTS LEGEND
  
 Use, reproduction and disclosure by the US Government is
 subject to restrictions as set forth in subparagraphs (a)
 and (c) of the Commercial Computer Software - Restricted
 Rights clause in FAR 52.227-19.
  
 Gaussian, Inc.
 340 Quinnipiac St., Bldg. 40, Wallingford CT 06492
  
  
 ---------------------------------------------------------------
 Warning -- This program may not be used in any manner that
 competes with the business of Gaussian, Inc. or will provide
 assistance to any competitor of Gaussian, Inc.  The licensee
 of this program is prohibited from giving any competitor of
 Gaussian, Inc. access to this program.  By using this program,
 the user acknowledges that Gaussian, Inc. is engaged in the
 business of creating and licensing software in the field of
 computational chemistry and represents and warrants to the
 licensee that it is not a competitor of Gaussian, Inc. and that
 it will not use this program in any manner prohibited above.
 ---------------------------------------------------------------
  

 Cite this work as:
 Gaussian 09, Revision E.01,
 M. J. Frisch, G. W. Trucks, H. B. Schlegel, G. E. Scuseria, 
 M. A. Robb, J. R. Cheeseman, G. Scalmani, V. Barone, B. Mennucci, 
 G. A. Petersson, H. Nakatsuji, M. Caricato, X. Li, H. P. Hratchian, 
 A. F. Izmaylov, J. Bloino, G. Zheng, J. L. Sonnenberg, M. Hada, 
 M. Ehara, K. Toyota, R. Fukuda, J. Hasegawa, M. Ishida, T. Nakajima, 
 Y. Honda, O. Kitao, H. Nakai, T. Vreven, J. A. Montgomery, Jr., 
 J. E. Peralta, F. Ogliaro, M. Bearpark, J. J. Heyd, E. Brothers, 
 K. N. Kudin, V. N. Staroverov, T. Keith, R. Kobayashi, J. Normand, 
 K. Raghavachari, A. Rendell, J. C. Burant, S. S. Iyengar, J. Tomasi, 
 M. Cossi, N. Rega, J. M. Millam, M. Klene, J. E. Knox, J. B. Cross, 
 V. Bakken, C. Adamo, J. Jaramillo, R. Gomperts, R. E. Stratmann, 
 O. Yazyev, A. J. Austin, R. Cammi, C. Pomelli, J. W. Ochterski, 
 R. L. Martin, K. Morokuma, V. G. Zakrzewski, G. A. Voth, 
 P. Salvador, J. J. Dannenberg, S. Dapprich, A. D. Daniels, 
 O. Farkas, J. B. Foresman, J. V. Ortiz, J. Cioslowski, 
 and D. J. Fox, Gaussian, Inc., Wallingford CT, 2013.
 
 ******************************************
 Gaussian 09:  ES64L-G09RevE.01 30-Nov-2015
                 4-Dec-2017 
 ******************************************
 %LindaWorkers=in-cn0541
 %NProcShared=24
 Will use up to   24 processors via shared memory.
 %Mem=59800mb
 %chk=20171201_def2svp_m06_105c12h24.chk
 SetLPE:  input flags=" -workerwait 900 -opt "Tsnet.Node.lindarsharg: ssh " "
 SetLPE:    new flags=" -workerwait 900 -opt "Tsnet.Node.lindarsharg: ssh "  -nodelist 'in-cn0541'"
 Will use up to    1 processors via Linda.
 -----------------------------
 # hf/sto-3g geom=connectivity
 -----------------------------
 1/38=1,57=2/1;
 2/12=2,17=6,18=5,40=1/2;
 3/6=3,11=9,16=1,25=1,30=1/1,2,3;
 4//1;
 5/5=2,38=5/2;
 6/7=2,8=2,9=2,10=2,28=1/1;
 99/5=1,9=1/99;
 -------------------
 Title Card Required
 -------------------
 Symbolic Z-matrix:
 Charge =  0 Multiplicity = 1
 C                    -6.85444  -0.13488  -0.16841 
 H                    -7.04021  -0.81833   0.67765 
 H                    -6.88444  -0.74368  -1.08813 
 H                    -7.69705   0.57265  -0.21285 
 C                    -5.52036   0.56989  -0.02104 
 H                    -5.36871   1.27332  -0.86199 
 H                    -5.52345   1.19984   0.8891 
 C                    -4.34402  -0.3886    0.0425 
 H                    -4.3351   -1.02083  -0.8681 
 H                    -4.48926  -1.09459   0.8849 
 C                    -3.00139   0.30277   0.18946 
 H                    -3.00709   0.93031   1.10287 
 H                    -2.85037   1.00933  -0.6497 
 C                    -1.82468  -0.66362   0.24693 
 H                    -1.80066  -1.27769  -0.67321 
 H                    -1.99464  -1.37372   1.0812 
 C                    -0.51189   0.02301   0.42809 
 H                    -0.40546   0.63496   1.33864 
 C                     0.51189  -0.02301  -0.42809 
 H                     0.69576   0.85288  -1.07147 
 C                     1.42768  -1.18547  -0.62227 
 H                     1.17604  -1.9836    0.10158 
 H                     2.46955  -0.8845   -0.39197 
 C                     1.38992  -1.74561  -2.03885 
 H                     1.62045  -0.93684  -2.76059 
 H                     0.35603  -2.06333  -2.27626 
 C                     2.34513  -2.90439  -2.25571 
 H                     3.37801  -2.58044  -2.01618 
 H                     2.11762  -3.71026  -1.5292 
 C                     2.30786  -3.47065  -3.66442 
 H                     1.27434  -3.79004  -3.8986 
 H                     2.5336   -2.6619   -4.38564 
 C                     3.26655  -4.6276   -3.86587 
 H                     3.22827  -5.02704  -4.89132 
 H                     4.30811  -4.32168  -3.66834 
 H                     3.03809  -5.45933  -3.1778 
 
                          Input orientation:                          
 ---------------------------------------------------------------------
 Center     Atomic      Atomic             Coordinates (Angstroms)
 Number     Number       Type             X           Y           Z
 ---------------------------------------------------------------------
      1          6           0       -6.854443   -0.134877   -0.168414
      2          1           0       -7.040212   -0.818328    0.677653
      3          1           0       -6.884443   -0.743683   -1.088126
      4          1           0       -7.697052    0.572652   -0.212848
      5          6           0       -5.520363    0.569890   -0.021040
      6          1           0       -5.368713    1.273324   -0.861988
      7          1           0       -5.523451    1.199843    0.889097
      8          6           0       -4.344023   -0.388597    0.042497
      9          1           0       -4.335099   -1.020835   -0.868101
     10          1           0       -4.489260   -1.094591    0.884904
     11          6           0       -3.001393    0.302765    0.189464
     12          1           0       -3.007087    0.930311    1.102873
     13          1           0       -2.850369    1.009328   -0.649702
     14          6           0       -1.824677   -0.663624    0.246928
     15          1           0       -1.800656   -1.277687   -0.673205
     16          1           0       -1.994641   -1.373719    1.081199
     17          6           0       -0.511885    0.023005    0.428088
     18          1           0       -0.405457    0.634962    1.338635
     19          6           0        0.511885   -0.023005   -0.428088
     20          1           0        0.695756    0.852878   -1.071466
     21          6           0        1.427676   -1.185468   -0.622272
     22          1           0        1.176037   -1.983600    0.101577
     23          1           0        2.469555   -0.884504   -0.391968
     24          6           0        1.389915   -1.745612   -2.038847
     25          1           0        1.620452   -0.936844   -2.760587
     26          1           0        0.356026   -2.063333   -2.276261
     27          6           0        2.345128   -2.904394   -2.255708
     28          1           0        3.378014   -2.580441   -2.016181
     29          1           0        2.117620   -3.710259   -1.529199
     30          6           0        2.307858   -3.470655   -3.664420
     31          1           0        1.274339   -3.790042   -3.898602
     32          1           0        2.533597   -2.661898   -4.385637
     33          6           0        3.266549   -4.627597   -3.865870
     34          1           0        3.228266   -5.027044   -4.891315
     35          1           0        4.308107   -4.321683   -3.668342
     36          1           0        3.038090   -5.459328   -3.177796
 ---------------------------------------------------------------------
                    Distance matrix (angstroms):
                    1          2          3          4          5
     1  C    0.000000
     2  H    1.103379   0.000000
     3  H    1.103365   1.774207   0.000000
     4  H    1.101164   1.777430   1.777409   0.000000
     5  C    1.515977   2.173767   2.173674   2.185125   0.000000
     6  H    2.161358   3.088594   2.533159   2.516642   1.106802
     7  H    2.161330   2.533434   3.088528   2.516385   1.106887
     8  C    2.532008   2.803128   2.803235   3.497428   1.518720
     9  H    2.760720   3.122179   2.573787   3.777735   2.157028
    10  H    2.761272   2.574224   3.122961   3.778186   2.157407
    11  C    3.894304   4.219862   4.219641   4.720583   2.541826
    12  H    4.189623   4.416407   4.757796   4.884139   2.776624
    13  H    4.192070   4.759935   4.420296   4.885884   2.777983
    14  C    5.074508   5.235577   5.233547   6.018684   3.905312
    15  H    5.205919   5.430357   5.128568   6.197029   4.204174
    16  H    5.168553   5.092062   5.386379   6.162825   4.174118
    17  C    6.372502   6.587046   6.595166   7.234607   5.058226
    18  H    6.667328   6.824143   7.054579   7.455088   5.292940
    19  C    7.371752   7.673941   7.460610   8.233334   6.074967
    20  H    7.667898   8.105402   7.746528   8.441266   6.310595
    21  C    8.360815   8.574948   8.336877   9.301574   7.191523
    22  H    8.244955   8.318442   8.241610   9.239318   7.167784
    23  H    9.356754   9.569960   9.380924  10.272063   8.129676
    24  C    8.605953   8.905407   8.388846   9.554140   7.562079
    25  H    8.898672   9.318940   8.669929   9.776780   7.795294
    26  H    7.755825   8.061016   7.455034   8.721132   6.822890
    27  C    9.831538  10.051910   9.550754  10.821669   8.884275
    28  H   10.681676  10.904183  10.466756  11.655518   9.648123
    29  H    9.753615   9.853900   9.488533  10.789064   8.884425
    30  C   10.358438  10.643066   9.928346  11.329603   9.533166
    31  H    9.661865   9.945097   9.151219  10.635024   8.956142
    32  H   10.597457  10.986058  10.161329  11.512631   9.713930
    33  C   11.674339  11.890477  11.217989  12.672320  10.909006
    34  H   12.161420  12.416455  11.622320  13.138007  11.470997
    35  H   12.425029  12.646956  12.030493  13.417108  11.568453
    36  H   11.630493  11.746299  11.183054  12.665661  10.934518
                    6          7          8          9         10
     6  H    0.000000
     7  H    1.759444   0.000000
     8  C    2.151758   2.151958   0.000000
     9  H    2.516259   3.071048   1.108600   0.000000
    10  H    3.071171   2.516743   1.108680   1.761315   0.000000
    11  C    2.766178   2.766769   1.517312   2.156185   2.156383
    12  H    3.091216   2.539771   2.156690   3.074951   2.518844
    13  H    2.541027   3.090237   2.159707   2.524615   3.076923
    14  C    4.188276   4.191160   2.542545   2.770038   2.773580
    15  H    4.390254   4.736892   2.787728   2.554870   3.112847
    16  H    4.708203   4.371799   2.751175   3.066275   2.517850
    17  C    5.178453   5.168488   3.873419   4.169733   4.156587
    18  H    5.466640   5.168659   4.270825   4.801399   4.458102
    19  C    6.037398   6.297270   4.892336   4.968152   5.280501
    20  H    6.082634   6.530140   5.308629   5.372304   5.874045
    21  C    7.231461   7.502807   5.864250   5.770365   6.106552
    22  H    7.373586   7.459064   5.746180   5.678011   5.787878
    23  H    8.143438   8.359053   6.845402   6.822654   7.078110
    24  C    7.495200   8.064936   6.249122   5.888271   6.598246
    25  H    7.572182   8.301866   6.613079   6.249572   7.116394
    26  H    6.775403   7.432096   5.501985   5.007631   5.865852
    27  C    8.882518   9.415365   7.507045   7.078042   7.736129
    28  H    9.627507  10.097884   8.286868   7.952520   8.515753
    29  H    9.018118   9.399108   7.433472   7.021940   7.504697
    30  C    9.449270  10.192029   8.215098   7.612483   8.517208
    31  H    8.887567   9.696956   7.659509   6.951132   7.960305
    32  H    9.505187  10.375543   8.489872   7.889559   8.919393
    33  C   10.881724  11.568615   9.548050   8.931987   9.757282
    34  H   11.394656  12.197535  10.158605   9.457297  10.411009
    35  H   11.524780  12.162114  10.202884   9.666538  10.418245
    36  H   11.016619  11.583789   9.517258   8.910602   9.602992
                   11         12         13         14         15
    11  C    0.000000
    12  H    1.108225   0.000000
    13  H    1.107357   1.761341   0.000000
    14  C    1.523768   2.161334   2.157489   0.000000
    15  H    2.164208   3.079803   2.516523   1.106479   0.000000
    16  H    2.149265   2.516758   3.067116   1.108662   1.767706
    17  C    2.516517   2.739447   2.757349   1.492549   2.136721
    18  H    2.858292   2.628934   3.173520   2.211862   3.106816
    19  C    3.581985   3.954215   3.524142   2.515067   2.642377
    20  H    3.944804   4.294740   3.574544   3.223433   3.306053
    21  C    4.742405   5.207665   4.808279   3.406704   3.230051
    22  H    4.762994   5.195383   5.072868   3.281425   3.155836
    23  H    5.628405   5.960009   5.652842   4.347114   4.297486
    24  C    5.333367   6.030307   5.243990   4.090118   3.501953
    25  H    5.621466   6.310840   5.313347   4.581343   4.022104
    26  H    4.790666   5.629474   4.729472   3.616785   2.799697
    27  C    6.697016   7.391295   6.699975   5.354579   4.726311
    28  H    7.339930   7.926121   7.317545   5.988643   5.506303
    29  H    6.727738   7.397656   6.908613   5.289454   4.690738
    30  C    7.568306   8.387146   7.467669   6.344754   5.535012
    31  H    7.193416   8.101055   7.113545   6.046802   5.115732
    32  H    7.768970   8.586436   7.511471   6.666957   5.872303
    33  C    8.946580   9.743575   8.918259   7.651717   6.862330
    34  H    9.645198  10.502381   9.559230   8.424560   7.559113
    35  H    9.470848  10.191172   9.422082   8.143818   7.453438
    36  H    9.000862   9.782422   9.105422   7.640289   6.868228
                   16         17         18         19         20
    16  H    0.000000
    17  C    2.139149   0.000000
    18  H    2.574214   1.102231   0.000000
    19  C    3.222584   1.335387   2.096604   0.000000
    20  H    4.102430   2.096604   2.658711   1.102231   0.000000
    21  C    3.827468   2.515067   3.243378   1.492549   2.211862
    22  H    3.374139   2.642377   3.299743   2.136721   3.106816
    23  H    4.726372   3.222584   3.683674   2.139149   2.574214
    24  C    4.618248   3.581985   4.505317   2.516517   2.858292
    25  H    5.293305   3.954215   4.835132   2.739447   2.628934
    26  H    4.156169   3.524142   4.574726   2.757349   3.173520
    27  C    5.684321   4.892336   5.745612   3.873419   4.270825
    28  H    6.317861   5.280501   5.992350   4.156587   4.458102
    29  H    5.402249   4.968152   5.785442   4.169733   4.801399
    30  C    6.740143   6.074967   7.017743   5.058226   5.292940
    31  H    6.428318   6.037398   7.059110   5.178453   5.466640
    32  H    7.214613   6.297270   7.230119   5.168488   5.168659
    33  C    7.920942   7.371752   8.262265   6.372502   6.667329
    34  H    8.734785   8.233334   9.169217   7.234607   7.455088
    35  H    8.424563   7.673941   8.476782   6.587046   6.824142
    36  H    7.756263   7.460610   8.330458   6.595166   7.054579
                   21         22         23         24         25
    21  C    0.000000
    22  H    1.106479   0.000000
    23  H    1.108662   1.767706   0.000000
    24  C    1.523768   2.164208   2.149265   0.000000
    25  H    2.161334   3.079803   2.516758   1.108225   0.000000
    26  H    2.157489   2.516523   3.067116   1.107357   1.761341
    27  C    2.542545   2.787728   2.751175   1.517312   2.156690
    28  H    2.773580   3.112847   2.517850   2.156383   2.518844
    29  H    2.770038   2.554870   3.066275   2.156185   3.074951
    30  C    3.905312   4.204174   4.174118   2.541826   2.776624
    31  H    4.188276   4.390254   4.708203   2.766178   3.091216
    32  H    4.191160   4.736892   4.371799   2.766769   2.539771
    33  C    5.074508   5.205919   5.168553   3.894304   4.189623
    34  H    6.018684   6.197029   6.162825   4.720583   4.884139
    35  H    5.235577   5.430357   5.092062   4.219862   4.416406
    36  H    5.233547   5.128568   5.386379   4.219641   4.757796
                   26         27         28         29         30
    26  H    0.000000
    27  C    2.159707   0.000000
    28  H    3.076923   1.108680   0.000000
    29  H    2.524615   1.108600   1.761315   0.000000
    30  C    2.777983   1.518720   2.157407   2.157028   0.000000
    31  H    2.541027   2.151758   3.071171   2.516259   1.106802
    32  H    3.090237   2.151958   2.516743   3.071048   1.106887
    33  C    4.192070   2.532008   2.761272   2.760720   1.515977
    34  H    4.885884   3.497428   3.778186   3.777735   2.185125
    35  H    4.759935   2.803128   2.574224   3.122179   2.173766
    36  H    4.420296   2.803235   3.122961   2.573787   2.173674
                   31         32         33         34         35
    31  H    0.000000
    32  H    1.759444   0.000000
    33  C    2.161358   2.161330   0.000000
    34  H    2.516642   2.516385   1.101164   0.000000
    35  H    3.088593   2.533433   1.103378   1.777429   0.000000
    36  H    2.533159   3.088528   1.103365   1.777409   1.774207
                   36
    36  H    0.000000
 Stoichiometry    C12H24
 Framework group  C1[X(C12H24)]
 Deg. of freedom   102
 Full point group                 C1      NOp   1
 Largest Abelian subgroup         C1      NOp   1
 Largest concise Abelian subgroup C1      NOp   1
                         Standard orientation:                         
 ---------------------------------------------------------------------
 Center     Atomic      Atomic             Coordinates (Angstroms)
 Number     Number       Type             X           Y           Z
 ---------------------------------------------------------------------
      1          6           0        5.816091   -1.782566   -0.033504
      2          1           0        6.001918   -1.770648   -1.121057
      3          1           0        5.301570   -2.731264    0.195963
      4          1           0        6.795653   -1.807997    0.468863
      5          6           0        4.982946   -0.590147    0.393333
      6          1           0        4.835827   -0.604092    1.490225
      7          1           0        5.530781    0.348725    0.184537
      8          6           0        3.627013   -0.535999   -0.288594
      9          1           0        3.073125   -1.473583   -0.080898
     10          1           0        3.768124   -0.519462   -1.388132
     11          6           0        2.781279    0.652383    0.129400
     12          1           0        3.331549    1.590488   -0.083491
     13          1           0        2.636486    0.641110    1.227192
     14          6           0        1.419982    0.698207   -0.553711
     15          1           0        0.856762   -0.226591   -0.326052
     16          1           0        1.578114    0.694748   -1.651032
     17          6           0        0.609682    1.889624   -0.164301
     18          1           0        1.056435    2.873283   -0.382799
     19          6           0       -0.578409    1.854023    0.444330
     20          1           0       -0.621422    2.082146    1.521838
     21          6           0       -1.873836    1.494502   -0.203985
     22          1           0       -1.715847    1.328580   -1.286485
     23          1           0       -2.580280    2.345506   -0.127432
     24          6           0       -2.530469    0.266134    0.413926
     25          1           0       -2.665527    0.429111    1.501749
     26          1           0       -1.839657   -0.595338    0.330952
     27          6           0       -3.866115   -0.085135   -0.214483
     28          1           0       -4.552987    0.780899   -0.128684
     29          1           0       -3.730962   -0.241892   -1.303590
     30          6           0       -4.522842   -1.312129    0.393551
     31          1           0       -3.831894   -2.172437    0.307115
     32          1           0       -4.653593   -1.151266    1.480853
     33          6           0       -5.855600   -1.651057   -0.244468
     34          1           0       -6.319206   -2.542149    0.206738
     35          1           0       -6.570924   -0.817352   -0.141067
     36          1           0       -5.742371   -1.847563   -1.324273
 ---------------------------------------------------------------------
 Rotational constants (GHZ):      1.5902864      0.2104596      0.1911581
 Standard basis: STO-3G (5D, 7F)
 There are    84 symmetry adapted cartesian basis functions of A   symmetry.
 There are    84 symmetry adapted basis functions of A   symmetry.
    84 basis functions,   252 primitive gaussians,    84 cartesian basis functions
    48 alpha electrons       48 beta electrons
       nuclear repulsion energy       664.8047172896 Hartrees.
 NAtoms=   36 NActive=   36 NUniq=   36 SFac= 1.00D+00 NAtFMM=   60 NAOKFM=F Big=F
 Integral buffers will be    131072 words long.
 Raffenetti 1 integral format.
 Two-electron integral symmetry is turned on.
 One-electron integrals computed using PRISM.
 NBasis=    84 RedAO= T EigKep=  1.87D-01  NBF=    84
 NBsUse=    84 1.00D-06 EigRej= -1.00D+00 NBFU=    84
 ExpMin= 1.69D-01 ExpMax= 7.16D+01 ExpMxC= 7.16D+01 IAcc=1 IRadAn=         1 AccDes= 0.00D+00
 Harris functional with IExCor=  205 and IRadAn=       1 diagonalized for initial guess.
 HarFok:  IExCor=  205 AccDes= 0.00D+00 IRadAn=         1 IDoV= 1 UseB2=F ITyADJ=14
 ICtDFT=  3500011 ScaDFX=  1.000000  1.000000  1.000000  1.000000
 FoFCou: FMM=F IPFlag=           0 FMFlag=      100000 FMFlg1=           0
         NFxFlg=           0 DoJE=T BraDBF=F KetDBF=T FulRan=T
         wScrn=  0.000000 ICntrl=     500 IOpCl=  0 I1Cent=   200000004 NGrid=           0
         NMat0=    1 NMatS0=      1 NMatT0=    0 NMatD0=    1 NMtDS0=    0 NMtDT0=    0
 Petite list used in FoFCou.
 Keep R1 ints in memory in canonical form, NReq=7311210.
 Requested convergence on RMS density matrix=1.00D-08 within 128 cycles.
 Requested convergence on MAX density matrix=1.00D-06.
 Requested convergence on             energy=1.00D-06.
 No special actions if energy rises.
 SCF Done:  E(RHF) =  -462.723187181     A.U. after   12 cycles
            NFock= 12  Conv=0.76D-08     -V/T= 2.0081

 **********************************************************************

            Population analysis using the SCF density.

 **********************************************************************

 Orbital symmetries:
       Occupied  (A) (A) (A) (A) (A) (A) (A) (A) (A) (A) (A) (A)
                 (A) (A) (A) (A) (A) (A) (A) (A) (A) (A) (A) (A)
                 (A) (A) (A) (A) (A) (A) (A) (A) (A) (A) (A) (A)
                 (A) (A) (A) (A) (A) (A) (A) (A) (A) (A) (A) (A)
       Virtual   (A) (A) (A) (A) (A) (A) (A) (A) (A) (A) (A) (A)
                 (A) (A) (A) (A) (A) (A) (A) (A) (A) (A) (A) (A)
                 (A) (A) (A) (A) (A) (A) (A) (A) (A) (A) (A) (A)
 The electronic state is 1-A.
 Alpha  occ. eigenvalues --  -11.04328 -11.04207 -11.04170 -11.04123 -11.04012
 Alpha  occ. eigenvalues --  -11.03836 -11.03482 -11.03403 -11.03334 -11.03238
 Alpha  occ. eigenvalues --  -10.99524 -10.99439  -1.05640  -1.04487  -1.01588
 Alpha  occ. eigenvalues --   -0.98471  -0.94263  -0.89285  -0.84917  -0.79105
 Alpha  occ. eigenvalues --   -0.76739  -0.75160  -0.74804  -0.67799  -0.62297
 Alpha  occ. eigenvalues --   -0.61441  -0.58550  -0.56644  -0.56269  -0.54898
 Alpha  occ. eigenvalues --   -0.53884  -0.52717  -0.51831  -0.50721  -0.50146
 Alpha  occ. eigenvalues --   -0.48158  -0.47219  -0.46136  -0.45580  -0.43809
 Alpha  occ. eigenvalues --   -0.43187  -0.42708  -0.42204  -0.41874  -0.41523
 Alpha  occ. eigenvalues --   -0.41302  -0.40371  -0.18145
 Alpha virt. eigenvalues --    0.20871   0.57512   0.57741   0.58296   0.58484
 Alpha virt. eigenvalues --    0.62740   0.63104   0.66183   0.66547   0.67109
 Alpha virt. eigenvalues --    0.67287   0.68496   0.68968   0.69454   0.70250
 Alpha virt. eigenvalues --    0.71873   0.72759   0.73619   0.74071   0.74394
 Alpha virt. eigenvalues --    0.75150   0.75592   0.76224   0.76523   0.77814
 Alpha virt. eigenvalues --    0.78249   0.78733   0.79790   0.80313   0.80624
 Alpha virt. eigenvalues --    0.81179   0.81633   0.82643   0.83922   0.88855
 Alpha virt. eigenvalues --    1.06608
          Condensed to atoms (all electrons):
               1          2          3          4          5          6
     1  C    4.725968   0.380236   0.380237   0.381650   0.368801  -0.022149
     2  H    0.380236   0.633363  -0.021852  -0.021518  -0.021010   0.001879
     3  H    0.380237  -0.021852   0.633377  -0.021519  -0.021016  -0.002226
     4  H    0.381650  -0.021518  -0.021519   0.628532  -0.019409  -0.002127
     5  C    0.368801  -0.021010  -0.021016  -0.019409   4.725424   0.379350
     6  H   -0.022149   0.001879  -0.002226  -0.002127   0.379350   0.645661
     7  H   -0.022159  -0.002222   0.001879  -0.002129   0.379326  -0.023846
     8  C   -0.022825  -0.002132  -0.002131   0.001239   0.368042  -0.023060
     9  H   -0.002221  -0.000006   0.000394   0.000010  -0.022658  -0.002345
    10  H   -0.002207   0.000394  -0.000006   0.000009  -0.022660   0.001943
    11  C    0.000714   0.000008   0.000008  -0.000015  -0.021553  -0.002197
    12  H    0.000007   0.000002  -0.000001  -0.000000  -0.002164   0.000002
    13  H    0.000007  -0.000001   0.000002  -0.000000  -0.002170   0.000385
    14  C   -0.000004  -0.000000  -0.000000   0.000000   0.000681   0.000006
    15  H   -0.000000   0.000000  -0.000000   0.000000   0.000005   0.000002
    16  H   -0.000000  -0.000000   0.000000   0.000000   0.000013  -0.000001
    17  C    0.000000   0.000000   0.000000  -0.000000  -0.000004  -0.000000
    18  H    0.000000   0.000000  -0.000000  -0.000000  -0.000000  -0.000000
    19  C    0.000000  -0.000000   0.000000  -0.000000  -0.000000  -0.000000
    20  H    0.000000   0.000000   0.000000  -0.000000  -0.000000   0.000000
    21  C   -0.000000  -0.000000  -0.000000   0.000000   0.000000  -0.000000
    22  H    0.000000   0.000000   0.000000  -0.000000  -0.000000  -0.000000
    23  H    0.000000   0.000000   0.000000  -0.000000  -0.000000  -0.000000
    24  C   -0.000000  -0.000000   0.000000   0.000000   0.000000   0.000000
    25  H   -0.000000   0.000000  -0.000000   0.000000   0.000000   0.000000
    26  H    0.000000   0.000000   0.000000  -0.000000  -0.000000  -0.000000
    27  C    0.000000   0.000000   0.000000  -0.000000  -0.000000  -0.000000
    28  H    0.000000  -0.000000   0.000000  -0.000000  -0.000000  -0.000000
    29  H    0.000000   0.000000  -0.000000  -0.000000  -0.000000  -0.000000
    30  C   -0.000000  -0.000000  -0.000000   0.000000   0.000000   0.000000
    31  H   -0.000000  -0.000000  -0.000000   0.000000   0.000000   0.000000
    32  H   -0.000000  -0.000000  -0.000000   0.000000   0.000000   0.000000
    33  C    0.000000   0.000000   0.000000   0.000000   0.000000  -0.000000
    34  H    0.000000   0.000000  -0.000000   0.000000   0.000000   0.000000
    35  H    0.000000   0.000000   0.000000   0.000000   0.000000  -0.000000
    36  H    0.000000   0.000000   0.000000   0.000000  -0.000000  -0.000000
               7          8          9         10         11         12
     1  C   -0.022159  -0.022825  -0.002221  -0.002207   0.000714   0.000007
     2  H   -0.002222  -0.002132  -0.000006   0.000394   0.000008   0.000002
     3  H    0.001879  -0.002131   0.000394  -0.000006   0.000008  -0.000001
     4  H   -0.002129   0.001239   0.000010   0.000009  -0.000015  -0.000000
     5  C    0.379326   0.368042  -0.022658  -0.022660  -0.021553  -0.002164
     6  H   -0.023846  -0.023060  -0.002345   0.001943  -0.002197   0.000002
     7  H    0.645786  -0.023064   0.001945  -0.002345  -0.002190   0.000393
     8  C   -0.023064   4.737623   0.378334   0.378487   0.369111  -0.022633
     9  H    0.001945   0.378334   0.648439  -0.023794  -0.022818   0.001932
    10  H   -0.002345   0.378487  -0.023794   0.647918  -0.022813  -0.002342
    11  C   -0.002190   0.369111  -0.022818  -0.022813   4.737355   0.378466
    12  H    0.000393  -0.022633   0.001932  -0.002342   0.378466   0.645050
    13  H    0.000003  -0.022487  -0.002272   0.001921   0.378004  -0.023662
    14  C    0.000006  -0.021291  -0.002161  -0.002188   0.366508  -0.022492
    15  H   -0.000001  -0.001967   0.000386  -0.000000  -0.022717   0.001888
    16  H    0.000002  -0.002623  -0.000005   0.000436  -0.023861  -0.002203
    17  C   -0.000000   0.000678   0.000007   0.000007  -0.022095  -0.002244
    18  H   -0.000000   0.000017  -0.000000   0.000001  -0.003010   0.000424
    19  C    0.000000   0.000000   0.000001  -0.000000  -0.000177   0.000011
    20  H   -0.000000   0.000001   0.000000   0.000000  -0.000027  -0.000002
    21  C   -0.000000  -0.000000  -0.000000   0.000000   0.000000  -0.000000
    22  H   -0.000000   0.000000  -0.000000   0.000000  -0.000002  -0.000000
    23  H   -0.000000   0.000000   0.000000  -0.000000  -0.000000   0.000000
    24  C    0.000000  -0.000000  -0.000000  -0.000000   0.000001  -0.000000
    25  H   -0.000000  -0.000000   0.000000  -0.000000   0.000000   0.000000
    26  H   -0.000000   0.000000   0.000000   0.000000  -0.000001  -0.000000
    27  C   -0.000000   0.000000   0.000000   0.000000  -0.000000   0.000000
    28  H    0.000000   0.000000  -0.000000  -0.000000   0.000000  -0.000000
    29  H   -0.000000   0.000000   0.000000  -0.000000  -0.000000   0.000000
    30  C    0.000000  -0.000000  -0.000000  -0.000000   0.000000   0.000000
    31  H    0.000000  -0.000000  -0.000000  -0.000000   0.000000  -0.000000
    32  H    0.000000  -0.000000  -0.000000  -0.000000   0.000000  -0.000000
    33  C    0.000000   0.000000   0.000000   0.000000  -0.000000   0.000000
    34  H    0.000000  -0.000000  -0.000000  -0.000000   0.000000  -0.000000
    35  H    0.000000   0.000000   0.000000   0.000000  -0.000000   0.000000
    36  H   -0.000000   0.000000   0.000000   0.000000  -0.000000  -0.000000
              13         14         15         16         17         18
     1  C    0.000007  -0.000004  -0.000000  -0.000000   0.000000   0.000000
     2  H   -0.000001  -0.000000   0.000000  -0.000000   0.000000   0.000000
     3  H    0.000002  -0.000000  -0.000000   0.000000   0.000000  -0.000000
     4  H   -0.000000   0.000000   0.000000   0.000000  -0.000000  -0.000000
     5  C   -0.002170   0.000681   0.000005   0.000013  -0.000004  -0.000000
     6  H    0.000385   0.000006   0.000002  -0.000001  -0.000000  -0.000000
     7  H    0.000003   0.000006  -0.000001   0.000002  -0.000000  -0.000000
     8  C   -0.022487  -0.021291  -0.001967  -0.002623   0.000678   0.000017
     9  H   -0.002272  -0.002161   0.000386  -0.000005   0.000007  -0.000000
    10  H    0.001921  -0.002188  -0.000000   0.000436   0.000007   0.000001
    11  C    0.378004   0.366508  -0.022717  -0.023861  -0.022095  -0.003010
    12  H   -0.023662  -0.022492   0.001888  -0.002203  -0.002244   0.000424
    13  H    0.645778  -0.023167  -0.002401   0.002012  -0.001317   0.000052
    14  C   -0.023167   4.735952   0.379786   0.367837   0.374134  -0.027136
    15  H   -0.002401   0.379786   0.641035  -0.022427  -0.022641   0.001672
    16  H    0.002012   0.367837  -0.022427   0.661082  -0.025728   0.000349
    17  C   -0.001317   0.374134  -0.022641  -0.025728   4.918247   0.374663
    18  H    0.000052  -0.027136   0.001672   0.000349   0.374663   0.638573
    19  C    0.000115  -0.029052  -0.004416   0.001728   0.531526  -0.032511
    20  H   -0.000025   0.001914   0.000044  -0.000047  -0.032534  -0.002517
    21  C    0.000001  -0.001357   0.000167   0.000053  -0.028653   0.001874
    22  H   -0.000000   0.000142   0.000049  -0.000031  -0.004360   0.000051
    23  H    0.000000  -0.000003  -0.000005   0.000008   0.000000  -0.000048
    24  C   -0.000000   0.000008  -0.000080  -0.000011   0.001055  -0.000022
    25  H   -0.000000   0.000002  -0.000001  -0.000000   0.000011  -0.000001
    26  H    0.000000  -0.000025   0.000007   0.000001   0.000047  -0.000003
    27  C    0.000000  -0.000000   0.000001   0.000000  -0.000010   0.000000
    28  H    0.000000  -0.000000   0.000000   0.000000  -0.000000   0.000000
    29  H    0.000000  -0.000000   0.000000   0.000000  -0.000000   0.000000
    30  C   -0.000000   0.000000  -0.000000  -0.000000   0.000000  -0.000000
    31  H   -0.000000  -0.000000  -0.000000  -0.000000   0.000000  -0.000000
    32  H   -0.000000   0.000000  -0.000000  -0.000000   0.000000  -0.000000
    33  C    0.000000  -0.000000   0.000000   0.000000  -0.000000   0.000000
    34  H   -0.000000   0.000000  -0.000000  -0.000000   0.000000  -0.000000
    35  H    0.000000  -0.000000  -0.000000   0.000000  -0.000000   0.000000
    36  H    0.000000  -0.000000   0.000000   0.000000  -0.000000   0.000000
              19         20         21         22         23         24
     1  C    0.000000   0.000000  -0.000000   0.000000   0.000000  -0.000000
     2  H   -0.000000   0.000000  -0.000000   0.000000   0.000000  -0.000000
     3  H    0.000000   0.000000  -0.000000   0.000000   0.000000   0.000000
     4  H   -0.000000  -0.000000   0.000000  -0.000000  -0.000000   0.000000
     5  C   -0.000000  -0.000000   0.000000  -0.000000  -0.000000   0.000000
     6  H   -0.000000   0.000000  -0.000000  -0.000000  -0.000000   0.000000
     7  H    0.000000  -0.000000  -0.000000  -0.000000  -0.000000   0.000000
     8  C    0.000000   0.000001  -0.000000   0.000000   0.000000  -0.000000
     9  H    0.000001   0.000000  -0.000000  -0.000000   0.000000  -0.000000
    10  H   -0.000000   0.000000   0.000000   0.000000  -0.000000  -0.000000
    11  C   -0.000177  -0.000027   0.000000  -0.000002  -0.000000   0.000001
    12  H    0.000011  -0.000002  -0.000000  -0.000000   0.000000  -0.000000
    13  H    0.000115  -0.000025   0.000001  -0.000000   0.000000  -0.000000
    14  C   -0.029052   0.001914  -0.001357   0.000142  -0.000003   0.000008
    15  H   -0.004416   0.000044   0.000167   0.000049  -0.000005  -0.000080
    16  H    0.001728  -0.000047   0.000053  -0.000031   0.000008  -0.000011
    17  C    0.531526  -0.032534  -0.028653  -0.004360   0.000000   0.001055
    18  H   -0.032511  -0.002517   0.001874   0.000051  -0.000048  -0.000022
    19  C    4.919070   0.375341   0.373864  -0.022421  -0.022095  -0.025143
    20  H    0.375341   0.638085  -0.027236   0.001675  -0.003422   0.000054
    21  C    0.373864  -0.027236   4.733550   0.379807   0.380437   0.355365
    22  H   -0.022421   0.001675   0.379807   0.640040  -0.023811  -0.021596
    23  H   -0.022095  -0.003422   0.380437  -0.023811   0.634164  -0.023713
    24  C   -0.025143   0.000054   0.355365  -0.021596  -0.023713   4.748767
    25  H   -0.002520   0.000439  -0.022362   0.001883  -0.002321   0.378948
    26  H   -0.002476  -0.000017  -0.022474  -0.002417   0.001894   0.379665
    27  C    0.000795  -0.000019  -0.022013  -0.002034  -0.002171   0.367413
    28  H    0.000007   0.000001  -0.002241  -0.000001   0.000458  -0.022745
    29  H    0.000009  -0.000001  -0.002238   0.000370   0.000009  -0.022777
    30  C   -0.000005   0.000000   0.000704   0.000006   0.000004  -0.021729
    31  H   -0.000000   0.000000   0.000007   0.000002  -0.000001  -0.002216
    32  H   -0.000000  -0.000000   0.000007  -0.000001   0.000002  -0.002207
    33  C    0.000000  -0.000000  -0.000005  -0.000000  -0.000000   0.000720
    34  H   -0.000000   0.000000   0.000000   0.000000   0.000000  -0.000015
    35  H    0.000000  -0.000000  -0.000000   0.000000  -0.000000   0.000008
    36  H    0.000000  -0.000000  -0.000000  -0.000000   0.000000   0.000008
              25         26         27         28         29         30
     1  C   -0.000000   0.000000   0.000000   0.000000   0.000000  -0.000000
     2  H    0.000000   0.000000   0.000000  -0.000000   0.000000  -0.000000
     3  H   -0.000000   0.000000   0.000000   0.000000  -0.000000  -0.000000
     4  H    0.000000  -0.000000  -0.000000  -0.000000  -0.000000   0.000000
     5  C    0.000000  -0.000000  -0.000000  -0.000000  -0.000000   0.000000
     6  H    0.000000  -0.000000  -0.000000  -0.000000  -0.000000   0.000000
     7  H   -0.000000  -0.000000  -0.000000   0.000000  -0.000000   0.000000
     8  C   -0.000000   0.000000   0.000000   0.000000   0.000000  -0.000000
     9  H    0.000000   0.000000   0.000000  -0.000000   0.000000  -0.000000
    10  H   -0.000000   0.000000   0.000000  -0.000000  -0.000000  -0.000000
    11  C    0.000000  -0.000001  -0.000000   0.000000  -0.000000   0.000000
    12  H    0.000000  -0.000000   0.000000  -0.000000   0.000000   0.000000
    13  H   -0.000000   0.000000   0.000000   0.000000   0.000000  -0.000000
    14  C    0.000002  -0.000025  -0.000000  -0.000000  -0.000000   0.000000
    15  H   -0.000001   0.000007   0.000001   0.000000   0.000000  -0.000000
    16  H   -0.000000   0.000001   0.000000   0.000000   0.000000  -0.000000
    17  C    0.000011   0.000047  -0.000010  -0.000000  -0.000000   0.000000
    18  H   -0.000001  -0.000003   0.000000   0.000000   0.000000  -0.000000
    19  C   -0.002520  -0.002476   0.000795   0.000007   0.000009  -0.000005
    20  H    0.000439  -0.000017  -0.000019   0.000001  -0.000001   0.000000
    21  C   -0.022362  -0.022474  -0.022013  -0.002241  -0.002238   0.000704
    22  H    0.001883  -0.002417  -0.002034  -0.000001   0.000370   0.000006
    23  H   -0.002321   0.001894  -0.002171   0.000458   0.000009   0.000004
    24  C    0.378948   0.379665   0.367413  -0.022745  -0.022777  -0.021729
    25  H    0.651143  -0.024020  -0.022914  -0.002340   0.001934  -0.002146
    26  H   -0.024020   0.649956  -0.022741   0.001924  -0.002286  -0.002144
    27  C   -0.022914  -0.022741   4.742223   0.378371   0.378466   0.367698
    28  H   -0.002340   0.001924   0.378371   0.651896  -0.023958  -0.022783
    29  H    0.001934  -0.002286   0.378466  -0.023958   0.651243  -0.022813
    30  C   -0.002146  -0.002144   0.367698  -0.022783  -0.022813   4.726665
    31  H    0.000005   0.000389  -0.023016   0.001946  -0.002347   0.379346
    32  H    0.000392   0.000005  -0.023017  -0.002345   0.001947   0.379304
    33  C    0.000006   0.000007  -0.022896  -0.002208  -0.002213   0.368650
    34  H   -0.000000  -0.000000   0.001242   0.000009   0.000009  -0.019440
    35  H    0.000002  -0.000001  -0.002138   0.000393  -0.000005  -0.020994
    36  H   -0.000001   0.000002  -0.002136  -0.000005   0.000393  -0.020997
              31         32         33         34         35         36
     1  C   -0.000000  -0.000000   0.000000   0.000000   0.000000   0.000000
     2  H   -0.000000  -0.000000   0.000000   0.000000   0.000000   0.000000
     3  H   -0.000000  -0.000000   0.000000  -0.000000   0.000000   0.000000
     4  H    0.000000   0.000000   0.000000   0.000000   0.000000   0.000000
     5  C    0.000000   0.000000   0.000000   0.000000   0.000000  -0.000000
     6  H    0.000000   0.000000  -0.000000   0.000000  -0.000000  -0.000000
     7  H    0.000000   0.000000   0.000000   0.000000   0.000000  -0.000000
     8  C   -0.000000  -0.000000   0.000000  -0.000000   0.000000   0.000000
     9  H   -0.000000  -0.000000   0.000000  -0.000000   0.000000   0.000000
    10  H   -0.000000  -0.000000   0.000000  -0.000000   0.000000   0.000000
    11  C    0.000000   0.000000  -0.000000   0.000000  -0.000000  -0.000000
    12  H   -0.000000  -0.000000   0.000000  -0.000000   0.000000  -0.000000
    13  H   -0.000000  -0.000000   0.000000  -0.000000   0.000000   0.000000
    14  C   -0.000000   0.000000  -0.000000   0.000000  -0.000000  -0.000000
    15  H   -0.000000  -0.000000   0.000000  -0.000000  -0.000000   0.000000
    16  H   -0.000000  -0.000000   0.000000  -0.000000   0.000000   0.000000
    17  C    0.000000   0.000000  -0.000000   0.000000  -0.000000  -0.000000
    18  H   -0.000000  -0.000000   0.000000  -0.000000   0.000000   0.000000
    19  C   -0.000000  -0.000000   0.000000  -0.000000   0.000000   0.000000
    20  H    0.000000  -0.000000  -0.000000   0.000000  -0.000000  -0.000000
    21  C    0.000007   0.000007  -0.000005   0.000000  -0.000000  -0.000000
    22  H    0.000002  -0.000001  -0.000000   0.000000   0.000000  -0.000000
    23  H   -0.000001   0.000002  -0.000000   0.000000  -0.000000   0.000000
    24  C   -0.002216  -0.002207   0.000720  -0.000015   0.000008   0.000008
    25  H    0.000005   0.000392   0.000006  -0.000000   0.000002  -0.000001
    26  H    0.000389   0.000005   0.000007  -0.000000  -0.000001   0.000002
    27  C   -0.023016  -0.023017  -0.022896   0.001242  -0.002138  -0.002136
    28  H    0.001946  -0.002345  -0.002208   0.000009   0.000393  -0.000005
    29  H   -0.002347   0.001947  -0.002213   0.000009  -0.000005   0.000393
    30  C    0.379346   0.379304   0.368650  -0.019440  -0.020994  -0.020997
    31  H    0.647028  -0.023897  -0.022225  -0.002123   0.001880  -0.002226
    32  H   -0.023897   0.647164  -0.022233  -0.002127  -0.002222   0.001881
    33  C   -0.022225  -0.022233   4.726556   0.381531   0.380224   0.380227
    34  H   -0.002123  -0.002127   0.381531   0.629832  -0.021572  -0.021571
    35  H    0.001880  -0.002222   0.380224  -0.021572   0.634145  -0.021877
    36  H   -0.002226   0.001881   0.380227  -0.021571  -0.021877   0.634091
 Mulliken charges:
               1
     1  C   -0.166054
     2  H    0.052862
     3  H    0.052854
     4  H    0.055277
     5  C   -0.088999
     6  H    0.048724
     7  H    0.048617
     8  C   -0.089318
     9  H    0.046835
    10  H    0.047240
    11  C   -0.086698
    12  H    0.049567
    13  H    0.049222
    14  C   -0.098099
    15  H    0.051615
    16  H    0.043416
    17  C   -0.060791
    18  H    0.047572
    19  C   -0.061650
    20  H    0.048294
    21  C   -0.097256
    22  H    0.052649
    23  H    0.060614
    24  C   -0.089759
    25  H    0.043861
    26  H    0.044708
    27  C   -0.091104
    28  H    0.043620
    29  H    0.044258
    30  C   -0.089326
    31  H    0.047448
    32  H    0.047349
    33  C   -0.166142
    34  H    0.054226
    35  H    0.052158
    36  H    0.052211
 Sum of Mulliken charges =   0.00000
 Mulliken charges with hydrogens summed into heavy atoms:
               1
     1  C   -0.005061
     5  C    0.008342
     8  C    0.004757
    11  C    0.012091
    14  C   -0.003068
    17  C   -0.013219
    19  C   -0.013356
    21  C    0.016008
    24  C   -0.001190
    27  C   -0.003227
    30  C    0.005471
    33  C   -0.007547
 Electronic spatial extent (au):  <R**2>=           5839.5557
 Charge=              0.0000 electrons
 Dipole moment (field-independent basis, Debye):
    X=              0.1913    Y=             -0.0951    Z=             -0.0106  Tot=              0.2139
 Quadrupole moment (field-independent basis, Debye-Ang):
   XX=            -75.6801   YY=            -76.3111   ZZ=            -75.2404
   XY=             -0.3938   XZ=             -0.4271   YZ=             -0.3132
 Traceless Quadrupole moment (field-independent basis, Debye-Ang):
   XX=              0.0638   YY=             -0.5672   ZZ=              0.5035
   XY=             -0.3938   XZ=             -0.4271   YZ=             -0.3132
 Octapole moment (field-independent basis, Debye-Ang**2):
  XXX=              6.4708  YYY=             -1.0039  ZZZ=              0.1151  XYY=             -0.9413
  XXY=              7.9582  XXZ=              1.3016  XZZ=              0.3443  YZZ=              0.2443
  YYZ=             -0.6244  XYZ=             -1.4160
 Hexadecapole moment (field-independent basis, Debye-Ang**3):
 XXXX=          -6695.4370 YYYY=           -858.4406 ZZZZ=           -190.2021 XXXY=            -10.6393
 XXXZ=            -11.7746 YYYX=              6.4321 YYYZ=             -6.7919 ZZZX=             -1.8654
 ZZZY=              3.3713 XXYY=          -1253.0339 XXZZ=          -1135.2156 YYZZ=           -178.0942
 XXYZ=             -6.5300 YYXZ=             -1.8766 ZZXY=             -0.2684
 N-N= 6.648047172896D+02 E-N=-2.405226699668D+03  KE= 4.589902674495D+02
 1\1\GINC-CN0541\SP\RHF\STO-3G\C12H24\GRAHA682\04-Dec-2017\0\\# hf/sto-
 3g geom=connectivity\\Title Card Required\\0,1\C,0,-6.854443,-0.134877
 ,-0.168414\H,0,-7.040212,-0.818328,0.677653\H,0,-6.884443,-0.743683,-1
 .088126\H,0,-7.697052,0.572652,-0.212848\C,0,-5.520363,0.56989,-0.0210
 4\H,0,-5.368713,1.273324,-0.861988\H,0,-5.523451,1.199843,0.889097\C,0
 ,-4.344023,-0.388597,0.042497\H,0,-4.335099,-1.020835,-0.868101\H,0,-4
 .48926,-1.094591,0.884904\C,0,-3.001393,0.302765,0.189464\H,0,-3.00708
 7,0.930311,1.102873\H,0,-2.850369,1.009328,-0.649702\C,0,-1.824677,-0.
 663624,0.246928\H,0,-1.800656,-1.277687,-0.673205\H,0,-1.994641,-1.373
 719,1.081199\C,0,-0.511885,0.023005,0.428088\H,0,-0.405457,0.634962,1.
 338635\C,0,0.511885,-0.023005,-0.428088\H,0,0.69575561,0.85287754,-1.0
 7146621\C,0,1.42767606,-1.18546804,-0.62227247\H,0,1.17603711,-1.98360
 024,0.1015769\H,0,2.46955483,-0.88450449,-0.39196758\C,0,1.38991526,-1
 .74561236,-2.0388468\H,0,1.62045214,-0.93684368,-2.76058661\H,0,0.3560
 2576,-2.06333278,-2.27626066\C,0,2.3451284,-2.90439416,-2.25570759\H,0
 ,3.37801385,-2.58044111,-2.01618103\H,0,2.11762033,-3.71025905,-1.5291
 9873\C,0,2.30785791,-3.47065483,-3.66441969\H,0,1.27433911,-3.79004201
 ,-3.89860207\H,0,2.53359711,-2.66189826,-4.3856369\C,0,3.26654868,-4.6
 2759688,-3.86586999\H,0,3.22826649,-5.02704448,-4.89131511\H,0,4.30810
 653,-4.32168327,-3.66834152\H,0,3.03809007,-5.4593276,-3.1777962\\Vers
 ion=ES64L-G09RevE.01\State=1-A\HF=-462.7231872\RMSD=7.598e-09\Dipole=-
 0.0839135,0.0029641,0.0053399\Quadrupole=0.1920014,-0.4645822,0.272580
 8,0.0609568,-0.1659968,-0.4539395\PG=C01 [X(C12H24)]\\@


 THERE IS NOTHING NOBLE IN BEING SUPERIOR TO SOME OTHER MAN.
 TRUE NOBILITY IS BEING SUPERIOR TO YOUR FORMER SELF.

                                                   -- HINDU PROVERB
 Job cpu time:       0 days  0 hours  0 minutes 49.6 seconds.
 File lengths (MBytes):  RWF=      5 Int=      0 D2E=      0 Chk=      2 Scr=      1
 Normal termination of Gaussian 09 at Mon Dec  4 11:09:10 2017.
48.89user 0.73system 0:03.94elapsed 1257%CPU (0avgtext+0avgdata 428388maxresident)k
189872inputs+15968outputs (178major+24077minor)pagefaults 0swaps
