 Entering Gaussian System, Link 0=g09
 Initial command:
 /panfs/roc/msisoft/gaussian/g09.e01_mesabi/g09/l1.exe "/scratch/graha682/3881879.mesabim3.msi.umn.edu/Gau-25959.inp" -scrdir="/scratch/graha682/3881879.mesabim3.msi.umn.edu/"
 Entering Link 1 = /panfs/roc/msisoft/gaussian/g09.e01_mesabi/g09/l1.exe PID=     25968.
  
 Copyright (c) 1988,1990,1992,1993,1995,1998,2003,2009,2015,
            Gaussian, Inc.  All Rights Reserved.
  
 This is part of the Gaussian(R) 09 program.  It is based on
 the Gaussian(R) 03 system (copyright 2003, Gaussian, Inc.),
 the Gaussian(R) 98 system (copyright 1998, Gaussian, Inc.),
 the Gaussian(R) 94 system (copyright 1995, Gaussian, Inc.),
 the Gaussian 92(TM) system (copyright 1992, Gaussian, Inc.),
 the Gaussian 90(TM) system (copyright 1990, Gaussian, Inc.),
 the Gaussian 88(TM) system (copyright 1988, Gaussian, Inc.),
 the Gaussian 86(TM) system (copyright 1986, Carnegie Mellon
 University), and the Gaussian 82(TM) system (copyright 1983,
 Carnegie Mellon University). Gaussian is a federally registered
 trademark of Gaussian, Inc.
  
 This software contains proprietary and confidential information,
 including trade secrets, belonging to Gaussian, Inc.
  
 This software is provided under written license and may be
 used, copied, transmitted, or stored only in accord with that
 written license.
  
 The following legend is applicable only to US Government
 contracts under FAR:
  
                    RESTRICTED RIGHTS LEGEND
  
 Use, reproduction and disclosure by the US Government is
 subject to restrictions as set forth in subparagraphs (a)
 and (c) of the Commercial Computer Software - Restricted
 Rights clause in FAR 52.227-19.
  
 Gaussian, Inc.
 340 Quinnipiac St., Bldg. 40, Wallingford CT 06492
  
  
 ---------------------------------------------------------------
 Warning -- This program may not be used in any manner that
 competes with the business of Gaussian, Inc. or will provide
 assistance to any competitor of Gaussian, Inc.  The licensee
 of this program is prohibited from giving any competitor of
 Gaussian, Inc. access to this program.  By using this program,
 the user acknowledges that Gaussian, Inc. is engaged in the
 business of creating and licensing software in the field of
 computational chemistry and represents and warrants to the
 licensee that it is not a competitor of Gaussian, Inc. and that
 it will not use this program in any manner prohibited above.
 ---------------------------------------------------------------
  

 Cite this work as:
 Gaussian 09, Revision E.01,
 M. J. Frisch, G. W. Trucks, H. B. Schlegel, G. E. Scuseria, 
 M. A. Robb, J. R. Cheeseman, G. Scalmani, V. Barone, B. Mennucci, 
 G. A. Petersson, H. Nakatsuji, M. Caricato, X. Li, H. P. Hratchian, 
 A. F. Izmaylov, J. Bloino, G. Zheng, J. L. Sonnenberg, M. Hada, 
 M. Ehara, K. Toyota, R. Fukuda, J. Hasegawa, M. Ishida, T. Nakajima, 
 Y. Honda, O. Kitao, H. Nakai, T. Vreven, J. A. Montgomery, Jr., 
 J. E. Peralta, F. Ogliaro, M. Bearpark, J. J. Heyd, E. Brothers, 
 K. N. Kudin, V. N. Staroverov, T. Keith, R. Kobayashi, J. Normand, 
 K. Raghavachari, A. Rendell, J. C. Burant, S. S. Iyengar, J. Tomasi, 
 M. Cossi, N. Rega, J. M. Millam, M. Klene, J. E. Knox, J. B. Cross, 
 V. Bakken, C. Adamo, J. Jaramillo, R. Gomperts, R. E. Stratmann, 
 O. Yazyev, A. J. Austin, R. Cammi, C. Pomelli, J. W. Ochterski, 
 R. L. Martin, K. Morokuma, V. G. Zakrzewski, G. A. Voth, 
 P. Salvador, J. J. Dannenberg, S. Dapprich, A. D. Daniels, 
 O. Farkas, J. B. Foresman, J. V. Ortiz, J. Cioslowski, 
 and D. J. Fox, Gaussian, Inc., Wallingford CT, 2013.
 
 ******************************************
 Gaussian 09:  ES64L-G09RevE.01 30-Nov-2015
                 6-Jul-2017 
 ******************************************
 %LindaWorkers=in-cn0604
 %NProcShared=24
 Will use up to   24 processors via shared memory.
 %Mem=59800mb
 %chk=20170630_augccpVTZ_ccsdt_chlorohexane.chk
 SetLPE:  input flags=" -workerwait 900 -opt "Tsnet.Node.lindarsharg: ssh " "
 SetLPE:    new flags=" -workerwait 900 -opt "Tsnet.Node.lindarsharg: ssh "  -nodelist 'in-cn0604'"
 Will use up to    1 processors via Linda.
 --------------------------------------------
 # opt freq aug-cc-pvtz geom=connectivity m06
 --------------------------------------------
 1/14=-1,18=20,19=15,26=3,38=1,57=2/1,3;
 2/9=110,12=2,17=6,18=5,40=1/2;
 3/5=16,6=1,7=10,11=2,16=1,25=1,30=1,71=1,74=-54/1,2,3;
 4//1;
 5/5=2,38=5/2;
 6/7=2,8=2,9=2,10=2,28=1/1;
 7//1,2,3,16;
 1/14=-1,18=20,19=15,26=3/3(2);
 2/9=110/2;
 99//99;
 2/9=110/2;
 3/5=16,6=1,7=10,11=2,16=1,25=1,30=1,71=1,74=-54/1,2,3;
 4/5=5,16=3,69=1/1;
 5/5=2,38=5/2;
 7//1,2,3,16;
 1/14=-1,18=20,19=15,26=3/3(-5);
 2/9=110/2;
 6/7=2,8=2,9=2,10=2,19=2,28=1/1;
 99/9=1/99;
 --------------
 1chloro-hexane
 --------------
 Symbolic Z-matrix:
 Charge =  0 Multiplicity = 1
 C                    -5.5638    1.88427   0. 
 H                    -5.20713   2.38867   0.87365 
 H                    -5.20713   2.38867  -0.87365 
 C                    -5.05048   0.43234   0. 
 H                    -5.40715  -0.07206   0.87365 
 H                    -5.40716  -0.07206  -0.87365 
 C                    -3.51048   0.43232  0. 
 H                    -3.15381   0.93672  -0.87366 
 H                    -3.15381   0.93672   0.87365 
 C                    -2.99717  -1.01961  0. 
 H                    -3.35384  -1.52401   0.87365 
 H                    -3.35384  -1.52401  -0.87365 
 Cl                   -7.3238    1.88429   0. 
 C                    -1.45717  -1.01963  -0.00001 
 H                    -1.1005   -0.51693  -0.87464 
 H                    -1.10049  -0.51353   0.87266 
 C                    -0.94385  -2.47156   0.00281 
 H                    -1.30097  -2.97781  -0.86958 
 H                     0.12615  -2.47157   0.00226 
 H                    -1.30007  -2.9741    0.87772 
 

 GradGradGradGradGradGradGradGradGradGradGradGradGradGradGradGradGradGrad
 Berny optimization.
 Initialization pass.
                           ----------------------------
                           !    Initial Parameters    !
                           ! (Angstroms and Degrees)  !
 --------------------------                            --------------------------
 ! Name  Definition              Value          Derivative Info.                !
 --------------------------------------------------------------------------------
 ! R1    R(1,2)                  1.07           estimate D2E/DX2                !
 ! R2    R(1,3)                  1.07           estimate D2E/DX2                !
 ! R3    R(1,4)                  1.54           estimate D2E/DX2                !
 ! R4    R(1,13)                 1.76           estimate D2E/DX2                !
 ! R5    R(4,5)                  1.07           estimate D2E/DX2                !
 ! R6    R(4,6)                  1.07           estimate D2E/DX2                !
 ! R7    R(4,7)                  1.54           estimate D2E/DX2                !
 ! R8    R(7,8)                  1.07           estimate D2E/DX2                !
 ! R9    R(7,9)                  1.07           estimate D2E/DX2                !
 ! R10   R(7,10)                 1.54           estimate D2E/DX2                !
 ! R11   R(10,11)                1.07           estimate D2E/DX2                !
 ! R12   R(10,12)                1.07           estimate D2E/DX2                !
 ! R13   R(10,14)                1.54           estimate D2E/DX2                !
 ! R14   R(14,15)                1.07           estimate D2E/DX2                !
 ! R15   R(14,16)                1.07           estimate D2E/DX2                !
 ! R16   R(14,17)                1.54           estimate D2E/DX2                !
 ! R17   R(17,18)                1.07           estimate D2E/DX2                !
 ! R18   R(17,19)                1.07           estimate D2E/DX2                !
 ! R19   R(17,20)                1.07           estimate D2E/DX2                !
 ! A1    A(2,1,3)              109.4713         estimate D2E/DX2                !
 ! A2    A(2,1,4)              109.4712         estimate D2E/DX2                !
 ! A3    A(2,1,13)             109.4712         estimate D2E/DX2                !
 ! A4    A(3,1,4)              109.4712         estimate D2E/DX2                !
 ! A5    A(3,1,13)             109.4712         estimate D2E/DX2                !
 ! A6    A(4,1,13)             109.4712         estimate D2E/DX2                !
 ! A7    A(1,4,5)              109.4712         estimate D2E/DX2                !
 ! A8    A(1,4,6)              109.4712         estimate D2E/DX2                !
 ! A9    A(1,4,7)              109.4712         estimate D2E/DX2                !
 ! A10   A(5,4,6)              109.4712         estimate D2E/DX2                !
 ! A11   A(5,4,7)              109.4713         estimate D2E/DX2                !
 ! A12   A(6,4,7)              109.4712         estimate D2E/DX2                !
 ! A13   A(4,7,8)              109.4712         estimate D2E/DX2                !
 ! A14   A(4,7,9)              109.4712         estimate D2E/DX2                !
 ! A15   A(4,7,10)             109.4712         estimate D2E/DX2                !
 ! A16   A(8,7,9)              109.4712         estimate D2E/DX2                !
 ! A17   A(8,7,10)             109.4713         estimate D2E/DX2                !
 ! A18   A(9,7,10)             109.4712         estimate D2E/DX2                !
 ! A19   A(7,10,11)            109.4712         estimate D2E/DX2                !
 ! A20   A(7,10,12)            109.4712         estimate D2E/DX2                !
 ! A21   A(7,10,14)            109.4712         estimate D2E/DX2                !
 ! A22   A(11,10,12)           109.4713         estimate D2E/DX2                !
 ! A23   A(11,10,14)           109.4712         estimate D2E/DX2                !
 ! A24   A(12,10,14)           109.4712         estimate D2E/DX2                !
 ! A25   A(10,14,15)           109.4712         estimate D2E/DX2                !
 ! A26   A(10,14,16)           109.4712         estimate D2E/DX2                !
 ! A27   A(10,14,17)           109.4712         estimate D2E/DX2                !
 ! A28   A(15,14,16)           109.4712         estimate D2E/DX2                !
 ! A29   A(15,14,17)           109.4713         estimate D2E/DX2                !
 ! A30   A(16,14,17)           109.4712         estimate D2E/DX2                !
 ! A31   A(14,17,18)           109.4712         estimate D2E/DX2                !
 ! A32   A(14,17,19)           109.4712         estimate D2E/DX2                !
 ! A33   A(14,17,20)           109.4712         estimate D2E/DX2                !
 ! A34   A(18,17,19)           109.4713         estimate D2E/DX2                !
 ! A35   A(18,17,20)           109.4712         estimate D2E/DX2                !
 ! A36   A(19,17,20)           109.4712         estimate D2E/DX2                !
 ! D1    D(2,1,4,5)             59.9999         estimate D2E/DX2                !
 ! D2    D(2,1,4,6)            179.9999         estimate D2E/DX2                !
 ! D3    D(2,1,4,7)            -60.0002         estimate D2E/DX2                !
 ! D4    D(3,1,4,5)            179.9999         estimate D2E/DX2                !
 ! D5    D(3,1,4,6)            -60.0001         estimate D2E/DX2                !
 ! D6    D(3,1,4,7)             59.9999         estimate D2E/DX2                !
 ! D7    D(13,1,4,5)           -60.0001         estimate D2E/DX2                !
 ! D8    D(13,1,4,6)            59.9999         estimate D2E/DX2                !
 ! D9    D(13,1,4,7)           179.9999         estimate D2E/DX2                !
 ! D10   D(1,4,7,8)            -60.0            estimate D2E/DX2                !
 ! D11   D(1,4,7,9)             60.0            estimate D2E/DX2                !
 ! D12   D(1,4,7,10)           179.9999         estimate D2E/DX2                !
 ! D13   D(5,4,7,8)            180.0            estimate D2E/DX2                !
 ! D14   D(5,4,7,9)            -60.0            estimate D2E/DX2                !
 ! D15   D(5,4,7,10)            60.0            estimate D2E/DX2                !
 ! D16   D(6,4,7,8)             60.0            estimate D2E/DX2                !
 ! D17   D(6,4,7,9)            180.0            estimate D2E/DX2                !
 ! D18   D(6,4,7,10)           -60.0001         estimate D2E/DX2                !
 ! D19   D(4,7,10,11)          -60.0001         estimate D2E/DX2                !
 ! D20   D(4,7,10,12)           59.9999         estimate D2E/DX2                !
 ! D21   D(4,7,10,14)          179.9999         estimate D2E/DX2                !
 ! D22   D(8,7,10,11)          179.9999         estimate D2E/DX2                !
 ! D23   D(8,7,10,12)          -60.0            estimate D2E/DX2                !
 ! D24   D(8,7,10,14)           59.9999         estimate D2E/DX2                !
 ! D25   D(9,7,10,11)           59.9999         estimate D2E/DX2                !
 ! D26   D(9,7,10,12)          179.9999         estimate D2E/DX2                !
 ! D27   D(9,7,10,14)          -60.0001         estimate D2E/DX2                !
 ! D28   D(7,10,14,15)         -60.1113         estimate D2E/DX2                !
 ! D29   D(7,10,14,16)          59.8887         estimate D2E/DX2                !
 ! D30   D(7,10,14,17)         179.8887         estimate D2E/DX2                !
 ! D31   D(11,10,14,15)        179.8888         estimate D2E/DX2                !
 ! D32   D(11,10,14,16)        -60.1112         estimate D2E/DX2                !
 ! D33   D(11,10,14,17)         59.8887         estimate D2E/DX2                !
 ! D34   D(12,10,14,15)         59.8887         estimate D2E/DX2                !
 ! D35   D(12,10,14,16)        179.8887         estimate D2E/DX2                !
 ! D36   D(12,10,14,17)        -60.1113         estimate D2E/DX2                !
 ! D37   D(10,14,17,18)         59.969          estimate D2E/DX2                !
 ! D38   D(10,14,17,19)        179.969          estimate D2E/DX2                !
 ! D39   D(10,14,17,20)        -60.031          estimate D2E/DX2                !
 ! D40   D(15,14,17,18)        -60.031          estimate D2E/DX2                !
 ! D41   D(15,14,17,19)         59.969          estimate D2E/DX2                !
 ! D42   D(15,14,17,20)        179.969          estimate D2E/DX2                !
 ! D43   D(16,14,17,18)        179.969          estimate D2E/DX2                !
 ! D44   D(16,14,17,19)        -60.031          estimate D2E/DX2                !
 ! D45   D(16,14,17,20)         59.969          estimate D2E/DX2                !
 --------------------------------------------------------------------------------
 Trust Radius=3.00D-01 FncErr=1.00D-07 GrdErr=1.00D-06
 Number of steps in this run=    110 maximum allowed number of steps=    120.
 GradGradGradGradGradGradGradGradGradGradGradGradGradGradGradGradGradGrad

                          Input orientation:                          
 ---------------------------------------------------------------------
 Center     Atomic      Atomic             Coordinates (Angstroms)
 Number     Number       Type             X           Y           Z
 ---------------------------------------------------------------------
      1          6           0       -5.563798    1.884273    0.000000
      2          1           0       -5.207126    2.388671    0.873652
      3          1           0       -5.207126    2.388671   -0.873652
      4          6           0       -5.050483    0.432341    0.000000
      5          1           0       -5.407154   -0.072057    0.873653
      6          1           0       -5.407157   -0.072059   -0.873650
      7          6           0       -3.510483    0.432323   -0.000004
      8          1           0       -3.153813    0.936720   -0.873657
      9          1           0       -3.153808    0.936723    0.873646
     10          6           0       -2.997167   -1.019610   -0.000002
     11          1           0       -3.353836   -1.524006    0.873652
     12          1           0       -3.353843   -1.524010   -0.873651
     13         17           0       -7.323798    1.884295    0.000000
     14          6           0       -1.457167   -1.019627   -0.000008
     15          1           0       -1.100498   -0.516928   -0.874640
     16          1           0       -1.100491   -0.513531    0.872660
     17          6           0       -0.943851   -2.471556    0.002813
     18          1           0       -1.300972   -2.977809   -0.869581
     19          1           0        0.126149   -2.471570    0.002264
     20          1           0       -1.300075   -2.974097    0.877717
 ---------------------------------------------------------------------
                    Distance matrix (angstroms):
                    1          2          3          4          5
     1  C    0.000000
     2  H    1.070000   0.000000
     3  H    1.070000   1.747303   0.000000
     4  C    1.540000   2.148263   2.148263   0.000000
     5  H    2.148263   2.468844   3.024610   1.070000   0.000000
     6  H    2.148263   3.024610   2.468847   1.070000   1.747303
     7  C    2.514809   2.732978   2.732976   1.540000   2.148263
     8  H    2.732977   3.062245   2.514808   2.148263   3.024610
     9  H    2.732977   2.514810   3.062240   2.148263   2.468847
    10  C    3.875581   4.154945   4.154944   2.514809   2.732977
    11  H    4.154945   4.329402   4.668704   2.732978   2.514810
    12  H    4.154945   4.668704   4.329403   2.732977   3.062242
    13  Cl   1.760000   2.344774   2.344774   2.697431   2.874736
    14  C    5.029618   5.142175   5.142173   3.875581   4.154945
    15  H    5.143132   5.325731   5.030596   4.155537   4.669231
    16  H    5.141217   5.028640   5.323234   4.154352   4.329231
    17  C    6.349581   6.523472   6.524225   5.029618   5.141696
    18  H    6.524393   6.862653   6.637557   5.142385   5.323814
    19  H    7.165813   7.268086   7.268630   5.935505   6.093802
    20  H    6.523304   6.635085   6.862334   5.141962   5.028912
                    6          7          8          9         10
     6  H    0.000000
     7  C    2.148263   0.000000
     8  H    2.468845   1.070000   0.000000
     9  H    3.024610   1.070000   1.747303   0.000000
    10  C    2.732978   1.540000   2.148263   2.148263   0.000000
    11  H    3.062245   2.148263   3.024610   2.468845   1.070000
    12  H    2.514809   2.148263   2.468847   3.024610   1.070000
    13  Cl   2.874734   4.080392   4.364626   4.364627   5.210796
    14  C    4.154944   2.514809   2.732977   2.732977   1.540000
    15  H    4.329576   2.733878   2.515789   3.063606   2.148263
    16  H    4.668176   2.732076   3.060878   2.513831   2.148263
    17  C    5.142653   3.875580   4.155536   4.154350   2.514809
    18  H    5.030324   4.155370   4.330886   4.668555   2.732726
    19  H    6.094453   4.653782   4.810595   4.809769   3.444314
    20  H    5.325152   4.154515   4.668849   4.327916   2.733228
                   11         12         13         14         15
    11  H    0.000000
    12  H    1.747303   0.000000
    13  Cl   5.304751   5.304749   0.000000
    14  C    2.148263   2.148263   6.546001   0.000000
    15  H    3.024609   2.468153   6.727580   1.070000   0.000000
    16  H    2.469539   3.024610   6.726117   1.070000   1.747303
    17  C    2.732076   2.733879   7.725101   1.540000   2.148263
    18  H    3.060499   2.515517   7.789138   2.148263   2.469039
    19  H    3.710457   3.711528   8.629906   2.148263   2.468653
    20  H    2.514104   3.063986   7.788428   2.148263   3.024610
                   16         17         18         19         20
    16  H    0.000000
    17  C    2.148263   0.000000
    18  H    3.024610   1.070000   0.000000
    19  H    2.469039   1.070000   1.747303   0.000000
    20  H    2.468653   1.070000   1.747303   1.747303   0.000000
 Stoichiometry    C6H13Cl
 Framework group  C1[X(C6H13Cl)]
 Deg. of freedom    54
 Full point group                 C1      NOp   1
 Largest Abelian subgroup         C1      NOp   1
 Largest concise Abelian subgroup C1      NOp   1
                         Standard orientation:                         
 ---------------------------------------------------------------------
 Center     Atomic      Atomic             Coordinates (Angstroms)
 Number     Number       Type             X           Y           Z
 ---------------------------------------------------------------------
      1          6           0        2.003508    0.657133   -0.000589
      2          1           0        1.982475    1.273831   -0.874741
      3          1           0        1.982853    1.275260    0.872561
      4          6           0        0.776819   -0.273906    0.000438
      5          1           0        0.797473   -0.892032   -0.872714
      6          1           0        0.797853   -0.890606    0.874588
      7          6           0       -0.509869    0.572282    0.000028
      8          1           0       -0.530522    1.190407    0.873180
      9          1           0       -0.530903    1.188983   -0.874122
     10          6           0       -1.736558   -0.358757    0.001054
     11          1           0       -1.715905   -0.976880   -0.872100
     12          1           0       -1.715524   -0.975458    0.875203
     13         17           0        3.474010   -0.309938   -0.000116
     14          6           0       -3.023246    0.487432    0.000645
     15          1           0       -3.044831    1.104138    0.874777
     16          1           0       -3.043348    1.105551   -0.872524
     17          6           0       -4.249934   -0.443606   -0.001149
     18          1           0       -4.229546   -1.062101    0.871748
     19          1           0       -5.143932    0.144329   -0.000887
     20          1           0       -4.228634   -1.059936   -0.875553
 ---------------------------------------------------------------------
 Rotational constants (GHZ):     11.5738527      0.5344534      0.5205781
 Standard basis: Aug-CC-pVTZ (5D, 7F)
 There are   714 symmetry adapted cartesian basis functions of A   symmetry.
 There are   625 symmetry adapted basis functions of A   symmetry.
   625 basis functions,   897 primitive gaussians,   714 cartesian basis functions
    33 alpha electrons       33 beta electrons
       nuclear repulsion energy       354.4656134538 Hartrees.
 NAtoms=   20 NActive=   20 NUniq=   20 SFac= 1.00D+00 NAtFMM=   60 NAOKFM=F Big=F
 Integral buffers will be    131072 words long.
 Raffenetti 2 integral format.
 Two-electron integral symmetry is turned on.
 One-electron integrals computed using PRISM.
 NBasis=   625 RedAO= T EigKep=  4.39D-06  NBF=   625
 NBsUse=   625 1.00D-06 EigRej= -1.00D+00 NBFU=   625
 ExpMin= 2.53D-02 ExpMax= 4.56D+05 ExpMxC= 1.44D+03 IAcc=3 IRadAn=         5 AccDes= 0.00D+00
 Harris functional with IExCor= 1009 and IRadAn=       5 diagonalized for initial guess.
 HarFok:  IExCor= 1009 AccDes= 0.00D+00 IRadAn=         5 IDoV= 1 UseB2=F ITyADJ=14
 ICtDFT=  3500011 ScaDFX=  1.000000  1.000000  1.000000  1.000000
 FoFCou: FMM=F IPFlag=           0 FMFlag=      100000 FMFlg1=           0
         NFxFlg=           0 DoJE=T BraDBF=F KetDBF=T FulRan=T
         wScrn=  0.000000 ICntrl=     500 IOpCl=  0 I1Cent=   200000004 NGrid=           0
         NMat0=    1 NMatS0=      1 NMatT0=    0 NMatD0=    1 NMtDS0=    0 NMtDT0=    0
 Petite list used in FoFCou.
 Requested convergence on RMS density matrix=1.00D-08 within 128 cycles.
 Requested convergence on MAX density matrix=1.00D-06.
 Requested convergence on             energy=1.00D-06.
 No special actions if energy rises.
 SCF Done:  E(RM06) =  -696.557191029     A.U. after   13 cycles
            NFock= 13  Conv=0.74D-08     -V/T= 2.0038

 **********************************************************************

            Population analysis using the SCF density.

 **********************************************************************

 Orbital symmetries:
       Occupied  (A) (A) (A) (A) (A) (A) (A) (A) (A) (A) (A) (A)
                 (A) (A) (A) (A) (A) (A) (A) (A) (A) (A) (A) (A)
                 (A) (A) (A) (A) (A) (A) (A) (A) (A)
       Virtual   (A) (A) (A) (A) (A) (A) (A) (A) (A) (A) (A) (A)
                 (A) (A) (A) (A) (A) (A) (A) (A) (A) (A) (A) (A)
                 (A) (A) (A) (A) (A) (A) (A) (A) (A) (A) (A) (A)
                 (A) (A) (A) (A) (A) (A) (A) (A) (A) (A) (A) (A)
                 (A) (A) (A) (A) (A) (A) (A) (A) (A) (A) (A) (A)
                 (A) (A) (A) (A) (A) (A) (A) (A) (A) (A) (A) (A)
                 (A) (A) (A) (A) (A) (A) (A) (A) (A) (A) (A) (A)
                 (A) (A) (A) (A) (A) (A) (A) (A) (A) (A) (A) (A)
                 (A) (A) (A) (A) (A) (A) (A) (A) (A) (A) (A) (A)
                 (A) (A) (A) (A) (A) (A) (A) (A) (A) (A) (A) (A)
                 (A) (A) (A) (A) (A) (A) (A) (A) (A) (A) (A) (A)
                 (A) (A) (A) (A) (A) (A) (A) (A) (A) (A) (A) (A)
                 (A) (A) (A) (A) (A) (A) (A) (A) (A) (A) (A) (A)
                 (A) (A) (A) (A) (A) (A) (A) (A) (A) (A) (A) (A)
                 (A) (A) (A) (A) (A) (A) (A) (A) (A) (A) (A) (A)
                 (A) (A) (A) (A) (A) (A) (A) (A) (A) (A) (A) (A)
                 (A) (A) (A) (A) (A) (A) (A) (A) (A) (A) (A) (A)
                 (A) (A) (A) (A) (A) (A) (A) (A) (A) (A) (A) (A)
                 (A) (A) (A) (A) (A) (A) (A) (A) (A) (A) (A) (A)
                 (A) (A) (A) (A) (A) (A) (A) (A) (A) (A) (A) (A)
                 (A) (A) (A) (A) (A) (A) (A) (A) (A) (A) (A) (A)
                 (A) (A) (A) (A) (A) (A) (A) (A) (A) (A) (A) (A)
                 (A) (A) (A) (A) (A) (A) (A) (A) (A) (A) (A) (A)
                 (A) (A) (A) (A) (A) (A) (A) (A) (A) (A) (A) (A)
                 (A) (A) (A) (A) (A) (A) (A) (A) (A) (A) (A) (A)
                 (A) (A) (A) (A) (A) (A) (A) (A) (A) (A) (A) (A)
                 (A) (A) (A) (A) (A) (A) (A) (A) (A) (A) (A) (A)
                 (A) (A) (A) (A) (A) (A) (A) (A) (A) (A) (A) (A)
                 (A) (A) (A) (A) (A) (A) (A) (A) (A) (A) (A) (A)
                 (A) (A) (A) (A) (A) (A) (A) (A) (A) (A) (A) (A)
                 (A) (A) (A) (A) (A) (A) (A) (A) (A) (A) (A) (A)
                 (A) (A) (A) (A) (A) (A) (A) (A) (A) (A) (A) (A)
                 (A) (A) (A) (A) (A) (A) (A) (A) (A) (A) (A) (A)
                 (A) (A) (A) (A) (A) (A) (A) (A) (A) (A) (A) (A)
                 (A) (A) (A) (A) (A) (A) (A) (A) (A) (A) (A) (A)
                 (A) (A) (A) (A) (A) (A) (A) (A) (A) (A) (A) (A)
                 (A) (A) (A) (A) (A) (A) (A) (A) (A) (A) (A) (A)
                 (A) (A) (A) (A) (A) (A) (A) (A) (A) (A) (A) (A)
                 (A) (A) (A) (A) (A) (A) (A) (A) (A) (A) (A) (A)
                 (A) (A) (A) (A) (A) (A) (A) (A) (A) (A) (A) (A)
                 (A) (A) (A) (A) (A) (A) (A) (A) (A) (A) (A) (A)
                 (A) (A) (A) (A) (A) (A) (A) (A) (A) (A) (A) (A)
                 (A) (A) (A) (A) (A) (A) (A) (A) (A) (A) (A) (A)
                 (A) (A) (A) (A) (A) (A) (A) (A) (A) (A) (A) (A)
                 (A) (A) (A) (A) (A) (A) (A) (A) (A) (A) (A) (A)
                 (A) (A) (A) (A) (A) (A) (A) (A) (A) (A) (A) (A)
                 (A) (A) (A) (A) (A) (A) (A) (A) (A) (A) (A) (A)
                 (A) (A) (A) (A) (A) (A) (A) (A) (A) (A) (A) (A)
                 (A) (A) (A) (A) (A) (A) (A) (A) (A) (A) (A) (A)
                 (A) (A) (A) (A)
 The electronic state is 1-A.
 Alpha  occ. eigenvalues -- -101.72464 -10.29141 -10.24237 -10.23830 -10.23416
 Alpha  occ. eigenvalues --  -10.23267 -10.22128  -9.57447  -7.28660  -7.27736
 Alpha  occ. eigenvalues --   -7.27735  -0.87996  -0.82394  -0.77878  -0.71580
 Alpha  occ. eigenvalues --   -0.64885  -0.60998  -0.59992  -0.51437  -0.48419
 Alpha  occ. eigenvalues --   -0.45217  -0.44970  -0.43995  -0.41589  -0.40112
 Alpha  occ. eigenvalues --   -0.39219  -0.37085  -0.36152  -0.35184  -0.35066
 Alpha  occ. eigenvalues --   -0.33316  -0.30487  -0.29526
 Alpha virt. eigenvalues --   -0.04191  -0.03189  -0.03011  -0.02780  -0.01367
 Alpha virt. eigenvalues --   -0.01001  -0.00970   0.00073   0.00308   0.00603
 Alpha virt. eigenvalues --    0.01272   0.01443   0.02245   0.02971   0.03237
 Alpha virt. eigenvalues --    0.04480   0.04913   0.05251   0.05829   0.06204
 Alpha virt. eigenvalues --    0.06378   0.06488   0.06937   0.07487   0.07685
 Alpha virt. eigenvalues --    0.08270   0.08548   0.08559   0.09231   0.09351
 Alpha virt. eigenvalues --    0.09939   0.10288   0.10506   0.10698   0.10967
 Alpha virt. eigenvalues --    0.11752   0.11761   0.12787   0.13289   0.13739
 Alpha virt. eigenvalues --    0.14138   0.14796   0.14970   0.15753   0.15780
 Alpha virt. eigenvalues --    0.16650   0.17205   0.17295   0.17559   0.18349
 Alpha virt. eigenvalues --    0.19801   0.20127   0.21013   0.21452   0.22094
 Alpha virt. eigenvalues --    0.22748   0.22765   0.23221   0.23515   0.23708
 Alpha virt. eigenvalues --    0.24004   0.24551   0.25119   0.25348   0.25379
 Alpha virt. eigenvalues --    0.25745   0.26299   0.26841   0.27173   0.27331
 Alpha virt. eigenvalues --    0.27742   0.27982   0.28158   0.28281   0.28633
 Alpha virt. eigenvalues --    0.29282   0.29305   0.29436   0.29475   0.29874
 Alpha virt. eigenvalues --    0.30122   0.30783   0.31277   0.31429   0.31894
 Alpha virt. eigenvalues --    0.32096   0.32235   0.32880   0.33136   0.33893
 Alpha virt. eigenvalues --    0.34836   0.34931   0.35866   0.36762   0.36873
 Alpha virt. eigenvalues --    0.37287   0.37664   0.37793   0.38314   0.38590
 Alpha virt. eigenvalues --    0.38615   0.40040   0.40174   0.40272   0.41150
 Alpha virt. eigenvalues --    0.41269   0.41394   0.42269   0.42489   0.43960
 Alpha virt. eigenvalues --    0.44386   0.44821   0.44919   0.45179   0.45998
 Alpha virt. eigenvalues --    0.47076   0.47694   0.48688   0.49307   0.49743
 Alpha virt. eigenvalues --    0.49977   0.50507   0.50940   0.52116   0.53039
 Alpha virt. eigenvalues --    0.53925   0.54184   0.55437   0.56492   0.56551
 Alpha virt. eigenvalues --    0.57434   0.58146   0.58660   0.59981   0.60178
 Alpha virt. eigenvalues --    0.60656   0.60947   0.61507   0.62644   0.63538
 Alpha virt. eigenvalues --    0.63605   0.64080   0.64786   0.65874   0.66501
 Alpha virt. eigenvalues --    0.66701   0.67115   0.67450   0.67601   0.68664
 Alpha virt. eigenvalues --    0.68943   0.69292   0.71881   0.71942   0.72259
 Alpha virt. eigenvalues --    0.72481   0.72898   0.73205   0.73832   0.74328
 Alpha virt. eigenvalues --    0.74742   0.75258   0.76367   0.76524   0.76911
 Alpha virt. eigenvalues --    0.77058   0.77601   0.77992   0.79295   0.80002
 Alpha virt. eigenvalues --    0.80184   0.80666   0.80778   0.81723   0.81915
 Alpha virt. eigenvalues --    0.82843   0.83494   0.83571   0.84313   0.85454
 Alpha virt. eigenvalues --    0.86595   0.86803   0.88858   0.89343   0.89969
 Alpha virt. eigenvalues --    0.89997   0.90939   0.91197   0.91716   0.93393
 Alpha virt. eigenvalues --    0.93734   0.94451   0.95047   0.95402   0.96026
 Alpha virt. eigenvalues --    0.96066   0.96833   0.97031   0.97359   0.98518
 Alpha virt. eigenvalues --    0.99127   0.99213   1.00196   1.00348   1.00938
 Alpha virt. eigenvalues --    1.01936   1.02259   1.03565   1.04315   1.04347
 Alpha virt. eigenvalues --    1.05633   1.06604   1.06835   1.06885   1.07763
 Alpha virt. eigenvalues --    1.07992   1.09279   1.09330   1.10181   1.10703
 Alpha virt. eigenvalues --    1.10832   1.11752   1.12040   1.12111   1.14556
 Alpha virt. eigenvalues --    1.14597   1.14779   1.16249   1.19058   1.19963
 Alpha virt. eigenvalues --    1.20712   1.22014   1.23456   1.23693   1.23985
 Alpha virt. eigenvalues --    1.24415   1.25569   1.27902   1.28021   1.28877
 Alpha virt. eigenvalues --    1.30057   1.30762   1.31162   1.33069   1.33100
 Alpha virt. eigenvalues --    1.34036   1.34163   1.35788   1.36457   1.37500
 Alpha virt. eigenvalues --    1.38072   1.38325   1.38728   1.39319   1.39910
 Alpha virt. eigenvalues --    1.40788   1.40975   1.42497   1.42512   1.42787
 Alpha virt. eigenvalues --    1.44353   1.44513   1.44527   1.45718   1.46525
 Alpha virt. eigenvalues --    1.47107   1.47920   1.48189   1.48847   1.49131
 Alpha virt. eigenvalues --    1.49338   1.50183   1.50503   1.51676   1.52011
 Alpha virt. eigenvalues --    1.52375   1.52481   1.53092   1.53804   1.54195
 Alpha virt. eigenvalues --    1.55456   1.55737   1.56649   1.57072   1.58300
 Alpha virt. eigenvalues --    1.59280   1.59970   1.61058   1.61132   1.62280
 Alpha virt. eigenvalues --    1.62515   1.63767   1.65964   1.66645   1.66787
 Alpha virt. eigenvalues --    1.67639   1.68843   1.69183   1.70350   1.71919
 Alpha virt. eigenvalues --    1.72379   1.72836   1.73089   1.74447   1.75240
 Alpha virt. eigenvalues --    1.75518   1.76676   1.76942   1.79453   1.79554
 Alpha virt. eigenvalues --    1.81377   1.82059   1.82087   1.83948   1.86278
 Alpha virt. eigenvalues --    1.88222   1.89092   1.90091   1.92063   1.92585
 Alpha virt. eigenvalues --    1.94057   1.94169   1.95066   1.97266   1.98263
 Alpha virt. eigenvalues --    1.98515   1.99618   2.00424   2.01981   2.02664
 Alpha virt. eigenvalues --    2.04085   2.04568   2.04766   2.06073   2.07674
 Alpha virt. eigenvalues --    2.08682   2.08813   2.10806   2.12060   2.13850
 Alpha virt. eigenvalues --    2.14860   2.16556   2.17075   2.17689   2.19745
 Alpha virt. eigenvalues --    2.20641   2.22437   2.22536   2.23023   2.28031
 Alpha virt. eigenvalues --    2.30167   2.30323   2.34216   2.37508   2.39517
 Alpha virt. eigenvalues --    2.39638   2.40396   2.42969   2.46784   2.51055
 Alpha virt. eigenvalues --    2.52975   2.55497   2.57254   2.57849   2.58281
 Alpha virt. eigenvalues --    2.60313   2.63406   2.67459   2.74415   2.76558
 Alpha virt. eigenvalues --    2.79946   2.82242   2.85511   2.87304   2.88208
 Alpha virt. eigenvalues --    2.90273   2.91567   2.94250   2.96243   2.97999
 Alpha virt. eigenvalues --    2.99293   3.00810   3.04051   3.05833   3.06270
 Alpha virt. eigenvalues --    3.06343   3.08505   3.09310   3.11502   3.13165
 Alpha virt. eigenvalues --    3.14182   3.14417   3.15236   3.15415   3.17918
 Alpha virt. eigenvalues --    3.19311   3.19357   3.24115   3.24825   3.25926
 Alpha virt. eigenvalues --    3.27727   3.27887   3.28878   3.30663   3.31766
 Alpha virt. eigenvalues --    3.32471   3.34321   3.34369   3.34910   3.36013
 Alpha virt. eigenvalues --    3.36682   3.36758   3.38955   3.41599   3.43246
 Alpha virt. eigenvalues --    3.44017   3.45005   3.45421   3.47624   3.49371
 Alpha virt. eigenvalues --    3.50028   3.51539   3.52803   3.53775   3.55035
 Alpha virt. eigenvalues --    3.55874   3.56850   3.56914   3.59155   3.60571
 Alpha virt. eigenvalues --    3.61018   3.61728   3.64082   3.65044   3.65102
 Alpha virt. eigenvalues --    3.66060   3.66457   3.66869   3.67218   3.67799
 Alpha virt. eigenvalues --    3.69013   3.70930   3.74677   3.76878   3.79755
 Alpha virt. eigenvalues --    3.80681   3.82640   3.83359   3.83385   3.85907
 Alpha virt. eigenvalues --    3.86910   3.89287   3.90667   3.92921   3.94259
 Alpha virt. eigenvalues --    3.94357   3.96260   3.96961   3.99416   4.00418
 Alpha virt. eigenvalues --    4.01442   4.02425   4.03588   4.04659   4.04673
 Alpha virt. eigenvalues --    4.07290   4.10580   4.11633   4.13838   4.15047
 Alpha virt. eigenvalues --    4.17686   4.19137   4.21236   4.21997   4.23552
 Alpha virt. eigenvalues --    4.25749   4.26872   4.27375   4.27762   4.29781
 Alpha virt. eigenvalues --    4.33536   4.34383   4.36116   4.36771   4.37556
 Alpha virt. eigenvalues --    4.38672   4.39423   4.40398   4.42397   4.43380
 Alpha virt. eigenvalues --    4.44355   4.46901   4.47544   4.48447   4.50610
 Alpha virt. eigenvalues --    4.51572   4.52599   4.54076   4.55492   4.56826
 Alpha virt. eigenvalues --    4.58844   4.62312   4.65117   4.65566   4.68765
 Alpha virt. eigenvalues --    4.68934   4.71964   4.73782   4.74275   4.75431
 Alpha virt. eigenvalues --    4.78232   4.78548   4.79273   4.79806   4.81593
 Alpha virt. eigenvalues --    4.81924   4.83947   4.84796   4.85610   4.85901
 Alpha virt. eigenvalues --    4.86697   4.89792   4.92207   4.92844   4.95516
 Alpha virt. eigenvalues --    4.96069   4.99502   5.00113   5.00781   5.01153
 Alpha virt. eigenvalues --    5.03539   5.04456   5.05502   5.05649   5.08118
 Alpha virt. eigenvalues --    5.11468   5.12945   5.13520   5.15377   5.16458
 Alpha virt. eigenvalues --    5.18260   5.19723   5.21624   5.25070   5.25804
 Alpha virt. eigenvalues --    5.28481   5.29428   5.33944   5.34257   5.36735
 Alpha virt. eigenvalues --    5.38675   5.40284   5.40916   5.41969   5.43383
 Alpha virt. eigenvalues --    5.46238   5.49198   5.52307   5.56617   5.57347
 Alpha virt. eigenvalues --    5.57899   5.60222   5.60293   5.64756   5.65491
 Alpha virt. eigenvalues --    5.66814   5.70042   5.70376   5.75597   5.76183
 Alpha virt. eigenvalues --    5.78705   5.79256   5.89657   5.94510   6.03752
 Alpha virt. eigenvalues --    6.05340   6.18683   6.20787   6.22848   6.29230
 Alpha virt. eigenvalues --    6.33425   6.37026   6.38879   6.45300   6.57968
 Alpha virt. eigenvalues --    7.72188  16.66665  17.18870  17.57564  17.62221
 Alpha virt. eigenvalues --   17.73916  18.22834
          Condensed to atoms (all electrons):
               1          2          3          4          5          6
     1  C    9.104768   0.001949   0.002166  -1.290087   0.020564   0.020425
     2  H    0.001949   0.357659   0.041615   0.022063  -0.057367   0.008048
     3  H    0.002166   0.041615   0.357661   0.022269   0.007985  -0.057295
     4  C   -1.290087   0.022063   0.022269  11.779728  -0.376494  -0.377742
     5  H    0.020564  -0.057367   0.007985  -0.376494   0.595886   0.014882
     6  H    0.020425   0.008048  -0.057295  -0.377742   0.014882   0.595877
     7  C    0.333991   0.074742   0.074479  -2.067778   0.006440   0.006483
     8  H   -0.084617  -0.052547  -0.037967   0.183886   0.144587  -0.047727
     9  H   -0.084479  -0.038023  -0.052616   0.183786  -0.047891   0.144570
    10  C   -0.248811   0.025270   0.025250   0.070667   0.048913   0.049386
    11  H   -0.011536   0.004566   0.002926  -0.065893  -0.010948  -0.091173
    12  H   -0.011537   0.002952   0.004556  -0.065894  -0.091435  -0.011033
    13  Cl  -0.707109   0.065830   0.065842   0.090130  -0.044882  -0.044805
    14  C   -0.070725   0.014554   0.014553  -0.426258  -0.006455  -0.006376
    15  H    0.004090   0.000302   0.001878   0.017305   0.002385  -0.002133
    16  H    0.004104   0.001892   0.000309   0.017337  -0.002163   0.002357
    17  C    0.005341   0.002037   0.002041  -0.211404  -0.007318  -0.007286
    18  H    0.000412  -0.000020   0.000095   0.008706   0.000304   0.001713
    19  H   -0.000078   0.000138   0.000140   0.011235   0.000607   0.000606
    20  H    0.000414   0.000098  -0.000020   0.008626   0.001699   0.000295
               7          8          9         10         11         12
     1  C    0.333991  -0.084617  -0.084479  -0.248811  -0.011536  -0.011537
     2  H    0.074742  -0.052547  -0.038023   0.025270   0.004566   0.002952
     3  H    0.074479  -0.037967  -0.052616   0.025250   0.002926   0.004556
     4  C   -2.067778   0.183886   0.183786   0.070667  -0.065893  -0.065894
     5  H    0.006440   0.144587  -0.047891   0.048913  -0.010948  -0.091435
     6  H    0.006483  -0.047727   0.144570   0.049386  -0.091173  -0.011033
     7  C   12.568846  -0.897246  -0.893605  -2.104897   0.068707   0.071790
     8  H   -0.897246   0.925902  -0.035755   0.104508   0.133261  -0.126877
     9  H   -0.893605  -0.035755   0.925820   0.103073  -0.126793   0.133008
    10  C   -2.104897   0.104508   0.103073  11.817910  -0.671173  -0.672841
    11  H    0.068707   0.133261  -0.126793  -0.671173   0.888544  -0.042005
    12  H    0.071790  -0.126877   0.133008  -0.672841  -0.042005   0.888146
    13  Cl   0.034120   0.001869   0.001876  -0.007137   0.000666   0.000678
    14  C    0.280769   0.015122   0.015099  -1.855828   0.050044   0.052558
    15  H    0.074146  -0.003549  -0.090494   0.222523   0.093975  -0.080797
    16  H    0.075943  -0.090864  -0.004126   0.221921  -0.079679   0.094073
    17  C   -0.329550  -0.015876  -0.015921  -0.004492   0.067470   0.065406
    18  H    0.026726  -0.001176   0.002188   0.015167  -0.056821  -0.017524
    19  H   -0.002813   0.002463   0.002479   0.036885   0.006585   0.006402
    20  H    0.026617   0.002175  -0.001159   0.015030  -0.017912  -0.056364
              13         14         15         16         17         18
     1  C   -0.707109  -0.070725   0.004090   0.004104   0.005341   0.000412
     2  H    0.065830   0.014554   0.000302   0.001892   0.002037  -0.000020
     3  H    0.065842   0.014553   0.001878   0.000309   0.002041   0.000095
     4  C    0.090130  -0.426258   0.017305   0.017337  -0.211404   0.008706
     5  H   -0.044882  -0.006455   0.002385  -0.002163  -0.007318   0.000304
     6  H   -0.044805  -0.006376  -0.002133   0.002357  -0.007286   0.001713
     7  C    0.034120   0.280769   0.074146   0.075943  -0.329550   0.026726
     8  H    0.001869   0.015122  -0.003549  -0.090864  -0.015876  -0.001176
     9  H    0.001876   0.015099  -0.090494  -0.004126  -0.015921   0.002188
    10  C   -0.007137  -1.855828   0.222523   0.221921  -0.004492   0.015167
    11  H    0.000666   0.050044   0.093975  -0.079679   0.067470  -0.056821
    12  H    0.000678   0.052558  -0.080797   0.094073   0.065406  -0.017524
    13  Cl  18.036795   0.004221  -0.000006  -0.000007   0.000303   0.000147
    14  C    0.004221  11.687100  -0.399773  -0.403718  -2.202966   0.241304
    15  H   -0.000006  -0.399773   0.565106  -0.021870  -0.199370  -0.002608
    16  H   -0.000007  -0.403718  -0.021870   0.566656  -0.199645   0.063513
    17  C    0.000303  -2.202966  -0.199370  -0.199645  12.575174  -0.356397
    18  H    0.000147   0.241304  -0.002608   0.063513  -0.356397   0.387441
    19  H    0.000008   0.138863  -0.039976  -0.040615  -0.012837  -0.091058
    20  H    0.000148   0.240293   0.063209  -0.002665  -0.353366   0.051107
              19         20
     1  C   -0.000078   0.000414
     2  H    0.000138   0.000098
     3  H    0.000140  -0.000020
     4  C    0.011235   0.008626
     5  H    0.000607   0.001699
     6  H    0.000606   0.000295
     7  C   -0.002813   0.026617
     8  H    0.002463   0.002175
     9  H    0.002479  -0.001159
    10  C    0.036885   0.015030
    11  H    0.006585  -0.017912
    12  H    0.006402  -0.056364
    13  Cl   0.000008   0.000148
    14  C    0.138863   0.240293
    15  H   -0.039976   0.063209
    16  H   -0.040615  -0.002665
    17  C   -0.012837  -0.353366
    18  H   -0.091058   0.051107
    19  H    0.415757  -0.090910
    20  H   -0.090910   0.386737
 Mulliken charges:
               1
     1  C   -0.989244
     2  H    0.524243
     3  H    0.524133
     4  C   -1.534187
     5  H    0.800702
     6  H    0.800926
     7  C   -1.427909
     8  H    0.880426
     9  H    0.878963
    10  C   -1.191325
    11  H    0.857191
    12  H    0.856740
    13  Cl  -0.498686
    14  C   -1.382382
    15  H    0.795655
    16  H    0.797248
    17  C   -2.801343
    18  H    0.726782
    19  H    0.656120
    20  H    0.725948
 Sum of Mulliken charges =  -0.00000
 Mulliken charges with hydrogens summed into heavy atoms:
               1
     1  C    0.059132
     4  C    0.067441
     7  C    0.331480
    10  C    0.522606
    13  Cl  -0.498686
    14  C    0.210520
    17  C   -0.692493
 Electronic spatial extent (au):  <R**2>=           2072.6327
 Charge=              0.0000 electrons
 Dipole moment (field-independent basis, Debye):
    X=             -2.0179    Y=              0.9022    Z=             -0.0001  Tot=              2.2104
 Quadrupole moment (field-independent basis, Debye-Ang):
   XX=            -62.3814   YY=            -53.0833   ZZ=            -51.8972
   XY=              1.4984   XZ=             -0.0015   YZ=             -0.0002
 Traceless Quadrupole moment (field-independent basis, Debye-Ang):
   XX=             -6.5941   YY=              2.7040   ZZ=              3.8901
   XY=              1.4984   XZ=             -0.0015   YZ=             -0.0002
 Octapole moment (field-independent basis, Debye-Ang**2):
  XXX=            -13.2193  YYY=             -0.0011  ZZZ=             -0.0011  XYY=              7.3740
  XXY=              4.7206  XXZ=              0.0089  XZZ=              3.2242  YZZ=              0.5235
  YYZ=              0.0008  XYZ=              0.0008
 Hexadecapole moment (field-independent basis, Debye-Ang**3):
 XXXX=          -2646.7970 YYYY=           -180.7307 ZZZZ=            -97.0119 XXXY=            -29.8479
 XXXZ=             -0.0289 YYYX=             -2.7578 YYYZ=              0.0030 ZZZX=             -0.0079
 ZZZY=             -0.0022 XXYY=           -446.2055 XXZZ=           -435.4926 YYZZ=            -41.9099
 XXYZ=             -0.0118 YYXZ=             -0.0016 ZZXY=              2.2860
 N-N= 3.544656134538D+02 E-N=-2.349555089240D+03  KE= 6.939197377219D+02
 Calling FoFJK, ICntrl=      2127 FMM=F ISym2X=0 I1Cent= 0 IOpClX= 0 NMat=1 NMatS=1 NMatT=0.
 ***** Axes restored to original set *****
 -------------------------------------------------------------------
 Center     Atomic                   Forces (Hartrees/Bohr)
 Number     Number              X              Y              Z
 -------------------------------------------------------------------
      1        6           0.010112175   -0.034981012   -0.000001562
      2        1           0.001351628    0.008366212    0.010280066
      3        1           0.001350712    0.008364831   -0.010280381
      4        6           0.021529295    0.035402700   -0.000000577
      5        1          -0.006844049   -0.007848295    0.010552244
      6        1          -0.006845223   -0.007848336   -0.010552202
      7        6          -0.027490292   -0.034466153   -0.000009540
      8        1           0.007008668    0.009000177   -0.011358881
      9        1           0.007005965    0.008998028    0.011358492
     10        6           0.027576110    0.038452969   -0.000002537
     11        1          -0.006463217   -0.009217378    0.011292642
     12        1          -0.006464367   -0.009226736   -0.011284055
     13       17          -0.014104060    0.004861600    0.000000750
     14        6          -0.021840376   -0.036929832    0.000064980
     15        1           0.005557164    0.009621226   -0.010612398
     16        1           0.005558512    0.009653168    0.010580305
     17        6          -0.003512687    0.030355894   -0.000068975
     18        1          -0.003580702   -0.008904133   -0.010428150
     19        1           0.013664962   -0.004795041    0.000003266
     20        1          -0.003570219   -0.008859887    0.010466512
 -------------------------------------------------------------------
 Cartesian Forces:  Max     0.038452969 RMS     0.014791580

 GradGradGradGradGradGradGradGradGradGradGradGradGradGradGradGradGradGrad
 Berny optimization.
 FormGI is forming the generalized inverse of G from B-inverse, IUseBI=4.
 Internal  Forces:  Max     0.015854597 RMS     0.006325734
 Search for a local minimum.
 Step number   1 out of a maximum of  110
 All quantities printed in internal units (Hartrees-Bohrs-Radians)
 Mixed Optimization -- RFO/linear search
 Second derivative matrix not updated -- first step.
 ITU=  0
     Eigenvalues ---    0.00237   0.00237   0.00237   0.00237   0.00237
     Eigenvalues ---    0.03840   0.03840   0.03840   0.03840   0.04896
     Eigenvalues ---    0.04896   0.04896   0.04896   0.05720   0.05720
     Eigenvalues ---    0.05720   0.05976   0.07655   0.07655   0.07655
     Eigenvalues ---    0.07655   0.11701   0.11701   0.11701   0.11701
     Eigenvalues ---    0.16000   0.16000   0.16000   0.16000   0.16000
     Eigenvalues ---    0.21948   0.21948   0.21948   0.21948   0.22461
     Eigenvalues ---    0.28519   0.28519   0.28519   0.28519   0.28519
     Eigenvalues ---    0.29539   0.37230   0.37230   0.37230   0.37230
     Eigenvalues ---    0.37230   0.37230   0.37230   0.37230   0.37230
     Eigenvalues ---    0.37230   0.37230   0.37230   0.37230
 RFO step:  Lambda=-1.31245778D-02 EMin= 2.36824055D-03
 Linear search not attempted -- first point.
 Iteration  1 RMS(Cart)=  0.02438542 RMS(Int)=  0.00041458
 Iteration  2 RMS(Cart)=  0.00086697 RMS(Int)=  0.00015994
 Iteration  3 RMS(Cart)=  0.00000011 RMS(Int)=  0.00015994
 Variable       Old X    -DE/DX   Delta X   Delta X   Delta X     New X
                                 (Linear)    (Quad)   (Total)
    R1        2.02201   0.01279   0.00000   0.03320   0.03320   2.05520
    R2        2.02201   0.01279   0.00000   0.03319   0.03319   2.05520
    R3        2.91018  -0.01217   0.00000  -0.04080  -0.04080   2.86938
    R4        3.32592   0.01410   0.00000   0.04569   0.04569   3.37161
    R5        2.02201   0.01459   0.00000   0.03786   0.03786   2.05987
    R6        2.02201   0.01459   0.00000   0.03786   0.03786   2.05987
    R7        2.91018  -0.00659   0.00000  -0.02209  -0.02209   2.88809
    R8        2.02201   0.01585   0.00000   0.04114   0.04114   2.06314
    R9        2.02201   0.01585   0.00000   0.04113   0.04113   2.06314
   R10        2.91018  -0.00722   0.00000  -0.02422  -0.02422   2.88596
   R11        2.02201   0.01572   0.00000   0.04079   0.04079   2.06280
   R12        2.02201   0.01572   0.00000   0.04078   0.04078   2.06279
   R13        2.91018  -0.00776   0.00000  -0.02602  -0.02602   2.88416
   R14        2.02201   0.01504   0.00000   0.03903   0.03903   2.06104
   R15        2.02201   0.01504   0.00000   0.03903   0.03903   2.06104
   R16        2.91018  -0.00633   0.00000  -0.02122  -0.02122   2.88896
   R17        2.02201   0.01392   0.00000   0.03611   0.03611   2.05811
   R18        2.02201   0.01366   0.00000   0.03543   0.03543   2.05744
   R19        2.02201   0.01391   0.00000   0.03610   0.03610   2.05811
    A1        1.91063  -0.00246   0.00000  -0.01152  -0.01172   1.89891
    A2        1.91063   0.00247   0.00000   0.01755   0.01726   1.92790
    A3        1.91063  -0.00623   0.00000  -0.03206  -0.03240   1.87823
    A4        1.91063   0.00246   0.00000   0.01754   0.01726   1.92789
    A5        1.91063  -0.00623   0.00000  -0.03205  -0.03240   1.87824
    A6        1.91063   0.00999   0.00000   0.04054   0.04018   1.95081
    A7        1.91063  -0.00165   0.00000  -0.00771  -0.00795   1.90269
    A8        1.91063  -0.00165   0.00000  -0.00772  -0.00797   1.90267
    A9        1.91063   0.00479   0.00000   0.02669   0.02656   1.93720
   A10        1.91063  -0.00051   0.00000  -0.02183  -0.02194   1.88870
   A11        1.91063  -0.00049   0.00000   0.00528   0.00528   1.91592
   A12        1.91063  -0.00049   0.00000   0.00529   0.00530   1.91593
   A13        1.91063  -0.00174   0.00000  -0.00096  -0.00109   1.90954
   A14        1.91063  -0.00174   0.00000  -0.00096  -0.00109   1.90955
   A15        1.91063   0.00828   0.00000   0.04372   0.04346   1.95409
   A16        1.91063  -0.00017   0.00000  -0.02689  -0.02704   1.88359
   A17        1.91063  -0.00232   0.00000  -0.00746  -0.00778   1.90286
   A18        1.91063  -0.00232   0.00000  -0.00744  -0.00777   1.90287
   A19        1.91063  -0.00252   0.00000  -0.00584  -0.00610   1.90453
   A20        1.91063  -0.00253   0.00000  -0.00594  -0.00620   1.90444
   A21        1.91063   0.01006   0.00000   0.05194   0.05165   1.96228
   A22        1.91063   0.00015   0.00000  -0.02733  -0.02754   1.88309
   A23        1.91063  -0.00257   0.00000  -0.00639  -0.00667   1.90396
   A24        1.91063  -0.00258   0.00000  -0.00644  -0.00672   1.90392
   A25        1.91063  -0.00246   0.00000  -0.00982  -0.01024   1.90040
   A26        1.91063  -0.00246   0.00000  -0.00980  -0.01021   1.90042
   A27        1.91063   0.00790   0.00000   0.04229   0.04204   1.95267
   A28        1.91063  -0.00032   0.00000  -0.02811  -0.02829   1.88234
   A29        1.91063  -0.00134   0.00000   0.00267   0.00263   1.91326
   A30        1.91063  -0.00133   0.00000   0.00276   0.00271   1.91334
   A31        1.91063   0.00217   0.00000   0.01139   0.01122   1.92185
   A32        1.91063   0.00598   0.00000   0.03683   0.03650   1.94713
   A33        1.91063   0.00217   0.00000   0.01140   0.01123   1.92187
   A34        1.91063  -0.00374   0.00000  -0.01931  -0.01963   1.89100
   A35        1.91063  -0.00285   0.00000  -0.02101  -0.02101   1.88963
   A36        1.91063  -0.00374   0.00000  -0.01931  -0.01963   1.89101
    D1        1.04720   0.00132   0.00000   0.01443   0.01440   1.06159
    D2        3.14159  -0.00132   0.00000  -0.02176  -0.02165   3.11994
    D3       -1.04720   0.00000   0.00000  -0.00366  -0.00363  -1.05083
    D4        3.14159   0.00133   0.00000   0.02181   0.02170  -3.11989
    D5       -1.04720  -0.00132   0.00000  -0.01438  -0.01435  -1.06155
    D6        1.04720   0.00000   0.00000   0.00372   0.00368   1.05087
    D7       -1.04720   0.00132   0.00000   0.01812   0.01805  -1.02915
    D8        1.04720  -0.00132   0.00000  -0.01807  -0.01800   1.02919
    D9        3.14159   0.00000   0.00000   0.00003   0.00003  -3.14157
   D10       -1.04720   0.00117   0.00000   0.01709   0.01716  -1.03004
   D11        1.04720  -0.00117   0.00000  -0.01702  -0.01709   1.03011
   D12        3.14159   0.00000   0.00000   0.00004   0.00004  -3.14155
   D13        3.14159   0.00056   0.00000   0.00695   0.00695  -3.13465
   D14       -1.04720  -0.00178   0.00000  -0.02716  -0.02730  -1.07450
   D15        1.04720  -0.00061   0.00000  -0.01010  -0.01017   1.03703
   D16        1.04720   0.00178   0.00000   0.02722   0.02736   1.07455
   D17        3.14159  -0.00056   0.00000  -0.00690  -0.00689   3.13470
   D18       -1.04720   0.00061   0.00000   0.01017   0.01024  -1.03696
   D19       -1.04720   0.00146   0.00000   0.02030   0.02032  -1.02688
   D20        1.04720  -0.00146   0.00000  -0.02039  -0.02040   1.02680
   D21        3.14159  -0.00000   0.00000  -0.00010  -0.00010   3.14149
   D22        3.14159  -0.00006   0.00000  -0.00072  -0.00066   3.14093
   D23       -1.04720  -0.00298   0.00000  -0.04141  -0.04138  -1.08858
   D24        1.04720  -0.00153   0.00000  -0.02113  -0.02108   1.02611
   D25        1.04720   0.00298   0.00000   0.04134   0.04131   1.08850
   D26        3.14159   0.00006   0.00000   0.00065   0.00059  -3.14100
   D27       -1.04720   0.00152   0.00000   0.02093   0.02089  -1.02631
   D28       -1.04914   0.00171   0.00000   0.02365   0.02355  -1.02558
   D29        1.04526  -0.00169   0.00000  -0.02279  -0.02269   1.02257
   D30        3.13965   0.00001   0.00000   0.00049   0.00049   3.14015
   D31        3.13965   0.00022   0.00000   0.00291   0.00281  -3.14073
   D32       -1.04914  -0.00319   0.00000  -0.04353  -0.04344  -1.09258
   D33        1.04526  -0.00148   0.00000  -0.02025  -0.02025   1.02500
   D34        1.04526   0.00319   0.00000   0.04424   0.04415   1.08941
   D35        3.13965  -0.00021   0.00000  -0.00219  -0.00209   3.13756
   D36       -1.04914   0.00149   0.00000   0.02109   0.02109  -1.02805
   D37        1.04666  -0.00041   0.00000  -0.00588  -0.00596   1.04069
   D38        3.14105  -0.00000   0.00000  -0.00000  -0.00000   3.14105
   D39       -1.04774   0.00041   0.00000   0.00589   0.00597  -1.04176
   D40       -1.04774  -0.00143   0.00000  -0.02138  -0.02158  -1.06932
   D41        1.04666  -0.00101   0.00000  -0.01551  -0.01562   1.03104
   D42        3.14105  -0.00060   0.00000  -0.00961  -0.00964   3.13141
   D43        3.14105   0.00060   0.00000   0.00971   0.00974  -3.13239
   D44       -1.04774   0.00101   0.00000   0.01559   0.01570  -1.03204
   D45        1.04666   0.00143   0.00000   0.02148   0.02168   1.06834
         Item               Value     Threshold  Converged?
 Maximum Force            0.015855     0.000450     NO 
 RMS     Force            0.006326     0.000300     NO 
 Maximum Displacement     0.088240     0.001800     NO 
 RMS     Displacement     0.023714     0.001200     NO 
 Predicted change in Energy=-6.956804D-03
 GradGradGradGradGradGradGradGradGradGradGradGradGradGradGradGradGradGrad

                          Input orientation:                          
 ---------------------------------------------------------------------
 Center     Atomic      Atomic             Coordinates (Angstroms)
 Number     Number       Type             X           Y           Z
 ---------------------------------------------------------------------
      1          6           0       -5.574375    1.875694   -0.000218
      2          1           0       -5.228672    2.406228    0.883990
      3          1           0       -5.228634    2.405901   -0.884606
      4          6           0       -5.055113    0.448832    0.000051
      5          1           0       -5.432935   -0.066452    0.883176
      6          1           0       -5.432874   -0.066744   -0.882932
      7          6           0       -3.527031    0.422272    0.000118
      8          1           0       -3.155040    0.945823   -0.882761
      9          1           0       -3.155110    0.946065    0.882879
     10          6           0       -2.980593   -1.003805    0.000328
     11          1           0       -3.351067   -1.528560    0.882903
     12          1           0       -3.351116   -1.528732   -0.882120
     13         17           0       -7.357697    1.930989   -0.000263
     14          6           0       -1.454860   -1.042815    0.000249
     15          1           0       -1.088339   -0.516996   -0.882193
     16          1           0       -1.088143   -0.514045    0.880844
     17          6           0       -0.921596   -2.475564    0.002514
     18          1           0       -1.275649   -3.008368   -0.878917
     19          1           0        0.166936   -2.497369    0.001896
     20          1           0       -1.274587   -3.005198    0.886274
 ---------------------------------------------------------------------
                    Distance matrix (angstroms):
                    1          2          3          4          5
     1  C    0.000000
     2  H    1.087566   0.000000
     3  H    1.087565   1.768596   0.000000
     4  C    1.518411   2.154732   2.154727   0.000000
     5  H    2.138300   2.481103   3.046199   1.090036   0.000000
     6  H    2.138287   3.046195   2.481066   1.090037   1.766109
     7  C    2.510787   2.759147   2.759162   1.528312   2.156644
     8  H    2.738015   3.090977   2.536065   2.153284   3.054838
     9  H    2.738049   2.536087   3.091056   2.153285   2.492725
    10  C    3.875464   4.178880   4.178863   2.532546   2.769843
    11  H    4.160764   4.359812   4.704183   2.755591   2.544000
    12  H    4.160619   4.704070   4.359635   2.755465   3.096531
    13  Cl   1.784179   2.353827   2.353829   2.738373   2.911176
    14  C    5.048575   5.188310   5.188255   3.897029   4.190218
    15  H    5.160171   5.367215   5.068074   4.176897   4.711160
    16  H    5.158818   5.066753   5.365311   4.176096   4.367787
    17  C    6.370385   6.569611   6.570104   5.063404   5.189563
    18  H    6.565457   6.931961   6.703764   5.197034   5.389144
    19  H    7.217087   7.344109   7.344394   5.995823   6.168028
    20  H    6.564842   6.702113   6.931847   5.196931   5.091964
                    6          7          8          9         10
     6  H    0.000000
     7  C    2.156653   0.000000
     8  H    2.492753   1.091768   0.000000
     9  H    3.054845   1.091765   1.765640   0.000000
    10  C    2.769822   1.527184   2.147400   2.147404   0.000000
    11  H    3.096611   2.148493   3.046074   2.482372   1.091585
    12  H    2.543841   2.148420   2.482310   3.046024   1.091582
    13  Cl   2.911183   4.117065   4.405868   4.405877   5.269920
    14  C    4.190146   2.537790   2.761340   2.761437   1.526232
    15  H    4.367803   2.758245   2.532013   3.086676   2.143933
    16  H    4.710379   2.756908   3.084409   2.530667   2.143954
    17  C    5.190188   3.896890   4.180654   4.179853   2.530918
    18  H    5.092710   4.196513   4.378099   4.719518   2.774560
    19  H    6.168365   4.708472   4.865564   4.865117   3.483917
    20  H    5.390357   4.195990   4.719762   4.375941   2.775055
                   11         12         13         14         15
    11  H    0.000000
    12  H    1.765023   0.000000
    13  Cl   5.366708   5.366566   0.000000
    14  C    2.147238   2.147202   6.609614   0.000000
    15  H    3.042821   2.478662   6.787877   1.090654   0.000000
    16  H    2.479934   3.042808   6.786888   1.090655   1.763040
    17  C    2.752132   2.753476   7.800071   1.528772   2.155573
    18  H    3.098581   2.548901   7.884199   2.160659   2.498406
    19  H    3.753813   3.754521   8.731006   2.178520   2.505834
    20  H    2.547987   3.101474   7.883915   2.160668   3.058319
                   16         17         18         19         20
    16  H    0.000000
    17  C    2.155635   0.000000
    18  H    3.058361   1.089107   0.000000
    19  H    2.506262   1.088751   1.765787   0.000000
    20  H    2.498126   1.089104   1.765195   1.765787   0.000000
 Stoichiometry    C6H13Cl
 Framework group  C1[X(C6H13Cl)]
 Deg. of freedom    54
 Full point group                 C1      NOp   1
 Largest Abelian subgroup         C1      NOp   1
 Largest concise Abelian subgroup C1      NOp   1
                         Standard orientation:                         
 ---------------------------------------------------------------------
 Center     Atomic      Atomic             Coordinates (Angstroms)
 Number     Number       Type             X           Y           Z
 ---------------------------------------------------------------------
      1          6           0        1.996925    0.635851   -0.000409
      2          1           0        2.000599    1.268420   -0.885080
      3          1           0        2.000830    1.269460    0.883515
      4          6           0        0.777307   -0.268639    0.000288
      5          1           0        0.808396   -0.907474   -0.882379
      6          1           0        0.808625   -0.906393    0.883729
      7          6           0       -0.512438    0.551298   -0.000056
      8          1           0       -0.534106    1.193817    0.882359
      9          1           0       -0.534356    1.192692   -0.883280
     10          6           0       -1.754301   -0.337560    0.000693
     11          1           0       -1.734563   -0.980249   -0.881417
     12          1           0       -1.734175   -0.979129    0.883606
     13         17           0        3.515491   -0.300765   -0.000059
     14          6           0       -3.048948    0.470693    0.000506
     15          1           0       -3.064800    1.112090    0.882484
     16          1           0       -3.063778    1.113374   -0.880556
     17          6           0       -4.283493   -0.430994   -0.000792
     18          1           0       -4.281453   -1.070061    0.881106
     19          1           0       -5.203836    0.150683   -0.000369
     20          1           0       -4.281033   -1.068120   -0.884088
 ---------------------------------------------------------------------
 Rotational constants (GHZ):     11.8502250      0.5244096      0.5117725
 Standard basis: Aug-CC-pVTZ (5D, 7F)
 There are   714 symmetry adapted cartesian basis functions of A   symmetry.
 There are   625 symmetry adapted basis functions of A   symmetry.
   625 basis functions,   897 primitive gaussians,   714 cartesian basis functions
    33 alpha electrons       33 beta electrons
       nuclear repulsion energy       352.2428228503 Hartrees.
 NAtoms=   20 NActive=   20 NUniq=   20 SFac= 1.00D+00 NAtFMM=   60 NAOKFM=F Big=F
 Integral buffers will be    131072 words long.
 Raffenetti 2 integral format.
 Two-electron integral symmetry is turned on.
 One-electron integrals computed using PRISM.
 NBasis=   625 RedAO= T EigKep=  4.46D-06  NBF=   625
 NBsUse=   625 1.00D-06 EigRej= -1.00D+00 NBFU=   625
 Initial guess from the checkpoint file:  "20170630_augccpVTZ_ccsdt_chlorohexane.chk"
 B after Tr=    -0.000000    0.000000    0.000000
         Rot=    1.000000   -0.000024   -0.000001   -0.000161 Ang=  -0.02 deg.
 ExpMin= 2.53D-02 ExpMax= 4.56D+05 ExpMxC= 1.44D+03 IAcc=3 IRadAn=         5 AccDes= 0.00D+00
 Harris functional with IExCor= 1009 and IRadAn=       5 diagonalized for initial guess.
 HarFok:  IExCor= 1009 AccDes= 0.00D+00 IRadAn=         5 IDoV= 1 UseB2=F ITyADJ=14
 ICtDFT=  3500011 ScaDFX=  1.000000  1.000000  1.000000  1.000000
 FoFCou: FMM=F IPFlag=           0 FMFlag=      100000 FMFlg1=           0
         NFxFlg=           0 DoJE=T BraDBF=F KetDBF=T FulRan=T
         wScrn=  0.000000 ICntrl=     500 IOpCl=  0 I1Cent=   200000004 NGrid=           0
         NMat0=    1 NMatS0=      1 NMatT0=    0 NMatD0=    1 NMtDS0=    0 NMtDT0=    0
 Petite list used in FoFCou.
 Requested convergence on RMS density matrix=1.00D-08 within 128 cycles.
 Requested convergence on MAX density matrix=1.00D-06.
 Requested convergence on             energy=1.00D-06.
 No special actions if energy rises.
 SCF Done:  E(RM06) =  -696.565054687     A.U. after   12 cycles
            NFock= 12  Conv=0.40D-08     -V/T= 2.0043
 Calling FoFJK, ICntrl=      2127 FMM=F ISym2X=0 I1Cent= 0 IOpClX= 0 NMat=1 NMatS=1 NMatT=0.
 ***** Axes restored to original set *****
 -------------------------------------------------------------------
 Center     Atomic                   Forces (Hartrees/Bohr)
 Number     Number              X              Y              Z
 -------------------------------------------------------------------
      1        6           0.009054044   -0.008933080    0.000001782
      2        1          -0.001030709    0.001816037    0.000676121
      3        1          -0.001031459    0.001815091   -0.000677070
      4        6           0.004903218    0.009908370   -0.000001286
      5        1          -0.001574274   -0.002388175    0.000449690
      6        1          -0.001573436   -0.002389284   -0.000448647
      7        6          -0.007451342   -0.010480494   -0.000003833
      8        1           0.001743815    0.002654542   -0.000657036
      9        1           0.001741661    0.002655432    0.000657399
     10        6           0.007542879    0.010781944   -0.000004412
     11        1          -0.002003582   -0.002714939    0.000682667
     12        1          -0.002004439   -0.002729740   -0.000674534
     13       17          -0.003916740    0.000519837   -0.000000224
     14        6          -0.005805754   -0.011194322    0.000015548
     15        1           0.001725559    0.002596506   -0.000530880
     16        1           0.001728530    0.002584872    0.000527710
     17        6          -0.002540361    0.010494855   -0.000021527
     18        1          -0.000097219   -0.002045117   -0.000794843
     19        1           0.000687309   -0.000907803    0.000001937
     20        1          -0.000097700   -0.002044533    0.000801438
 -------------------------------------------------------------------
 Cartesian Forces:  Max     0.011194322 RMS     0.004114700

 GradGradGradGradGradGradGradGradGradGradGradGradGradGradGradGradGradGrad
 Berny optimization.
 Using GEDIIS/GDIIS optimizer.
 FormGI is forming the generalized inverse of G from B-inverse, IUseBI=4.
 Internal  Forces:  Max     0.005857771 RMS     0.001570947
 Search for a local minimum.
 Step number   2 out of a maximum of  110
 All quantities printed in internal units (Hartrees-Bohrs-Radians)
 Mixed Optimization -- RFO/linear search
 Update second derivatives using D2CorX and points    1    2
 DE= -7.86D-03 DEPred=-6.96D-03 R= 1.13D+00
 TightC=F SS=  1.41D+00  RLast= 2.44D-01 DXNew= 5.0454D-01 7.3106D-01
 Trust test= 1.13D+00 RLast= 2.44D-01 DXMaxT set to 5.05D-01
 ITU=  1  0
 Use linear search instead of GDIIS.
     Eigenvalues ---    0.00237   0.00237   0.00237   0.00237   0.00237
     Eigenvalues ---    0.03502   0.03545   0.03550   0.03645   0.04498
     Eigenvalues ---    0.04788   0.04793   0.04817   0.05410   0.05425
     Eigenvalues ---    0.05597   0.05752   0.07956   0.08100   0.08115
     Eigenvalues ---    0.08186   0.11926   0.12044   0.12052   0.12109
     Eigenvalues ---    0.15207   0.16000   0.16000   0.16000   0.16061
     Eigenvalues ---    0.21848   0.21941   0.21950   0.22196   0.22909
     Eigenvalues ---    0.25105   0.28519   0.28519   0.28519   0.28575
     Eigenvalues ---    0.29563   0.36940   0.37230   0.37230   0.37230
     Eigenvalues ---    0.37230   0.37230   0.37230   0.37230   0.37230
     Eigenvalues ---    0.37230   0.37230   0.37230   0.38620
 RFO step:  Lambda=-1.05171958D-03 EMin= 2.36824048D-03
 Quartic linear search produced a step of  0.28300.
 Iteration  1 RMS(Cart)=  0.00959939 RMS(Int)=  0.00015428
 Iteration  2 RMS(Cart)=  0.00018765 RMS(Int)=  0.00009996
 Iteration  3 RMS(Cart)=  0.00000002 RMS(Int)=  0.00009996
 Variable       Old X    -DE/DX   Delta X   Delta X   Delta X     New X
                                 (Linear)    (Quad)   (Total)
    R1        2.05520   0.00111   0.00939  -0.00343   0.00597   2.06117
    R2        2.05520   0.00111   0.00939  -0.00343   0.00597   2.06117
    R3        2.86938  -0.00554  -0.01155  -0.01587  -0.02742   2.84196
    R4        3.37161   0.00393   0.01293   0.00700   0.01993   3.39154
    R5        2.05987   0.00204   0.01072  -0.00126   0.00945   2.06932
    R6        2.05987   0.00204   0.01072  -0.00126   0.00945   2.06932
    R7        2.88809  -0.00484  -0.00625  -0.01684  -0.02309   2.86500
    R8        2.06314   0.00240   0.01164  -0.00074   0.01091   2.07405
    R9        2.06314   0.00240   0.01164  -0.00073   0.01091   2.07404
   R10        2.88596  -0.00480  -0.00685  -0.01618  -0.02304   2.86292
   R11        2.06280   0.00254   0.01154  -0.00018   0.01136   2.07416
   R12        2.06279   0.00254   0.01154  -0.00018   0.01136   2.07415
   R13        2.88416  -0.00440  -0.00736  -0.01402  -0.02138   2.86278
   R14        2.06104   0.00226   0.01105  -0.00076   0.01029   2.07133
   R15        2.06104   0.00226   0.01105  -0.00076   0.01029   2.07133
   R16        2.88896  -0.00586  -0.00600  -0.02159  -0.02760   2.86136
   R17        2.05811   0.00168   0.01022  -0.00211   0.00811   2.06622
   R18        2.05744   0.00070   0.01003  -0.00532   0.00471   2.06215
   R19        2.05811   0.00168   0.01022  -0.00211   0.00811   2.06622
    A1        1.89891  -0.00151  -0.00332  -0.00148  -0.00524   1.89367
    A2        1.92790   0.00212   0.00489   0.01489   0.01950   1.94740
    A3        1.87823  -0.00142  -0.00917  -0.00846  -0.01768   1.86055
    A4        1.92789   0.00212   0.00488   0.01488   0.01949   1.94738
    A5        1.87824  -0.00142  -0.00917  -0.00847  -0.01769   1.86055
    A6        1.95081  -0.00012   0.01137  -0.01234  -0.00103   1.94978
    A7        1.90269   0.00056  -0.00225   0.00889   0.00654   1.90923
    A8        1.90267   0.00056  -0.00225   0.00889   0.00654   1.90920
    A9        1.93720  -0.00074   0.00752  -0.00435   0.00308   1.94027
   A10        1.88870  -0.00122  -0.00621  -0.02114  -0.02734   1.86135
   A11        1.91592   0.00042   0.00150   0.00366   0.00512   1.92104
   A12        1.91593   0.00041   0.00150   0.00365   0.00511   1.92104
   A13        1.90954   0.00007  -0.00031   0.00379   0.00334   1.91288
   A14        1.90955   0.00007  -0.00031   0.00378   0.00334   1.91289
   A15        1.95409   0.00051   0.01230   0.00028   0.01238   1.96647
   A16        1.88359  -0.00110  -0.00765  -0.02315  -0.03081   1.85278
   A17        1.90286   0.00019  -0.00220   0.00716   0.00479   1.90765
   A18        1.90287   0.00019  -0.00220   0.00719   0.00482   1.90769
   A19        1.90453   0.00016  -0.00173   0.00581   0.00391   1.90844
   A20        1.90444   0.00016  -0.00175   0.00583   0.00391   1.90834
   A21        1.96228   0.00032   0.01462  -0.00229   0.01211   1.97439
   A22        1.88309  -0.00121  -0.00779  -0.02484  -0.03265   1.85044
   A23        1.90396   0.00024  -0.00189   0.00718   0.00513   1.90909
   A24        1.90392   0.00024  -0.00190   0.00718   0.00511   1.90903
   A25        1.90040   0.00024  -0.00290   0.00677   0.00368   1.90407
   A26        1.90042   0.00024  -0.00289   0.00679   0.00370   1.90412
   A27        1.95267  -0.00000   0.01190  -0.00262   0.00910   1.96177
   A28        1.88234  -0.00119  -0.00801  -0.02253  -0.03055   1.85179
   A29        1.91326   0.00033   0.00074   0.00540   0.00607   1.91933
   A30        1.91334   0.00033   0.00077   0.00537   0.00607   1.91941
   A31        1.92185   0.00147   0.00318   0.00905   0.01211   1.93397
   A32        1.94713   0.00070   0.01033  -0.00198   0.00820   1.95533
   A33        1.92187   0.00147   0.00318   0.00907   0.01214   1.93401
   A34        1.89100  -0.00111  -0.00556  -0.00397  -0.00967   1.88133
   A35        1.88963  -0.00158  -0.00595  -0.00884  -0.01484   1.87479
   A36        1.89101  -0.00111  -0.00555  -0.00397  -0.00966   1.88134
    D1        1.06159  -0.00002   0.00407  -0.00112   0.00285   1.06444
    D2        3.11994  -0.00085  -0.00613  -0.01636  -0.02258   3.09736
    D3       -1.05083  -0.00044  -0.00103  -0.00875  -0.00987  -1.06070
    D4       -3.11989   0.00085   0.00614   0.01644   0.02268  -3.09722
    D5       -1.06155   0.00002  -0.00406   0.00120  -0.00275  -1.06430
    D6        1.05087   0.00044   0.00104   0.00881   0.00995   1.06083
    D7       -1.02915   0.00041   0.00511   0.00765   0.01276  -1.01640
    D8        1.02919  -0.00041  -0.00509  -0.00758  -0.01267   1.01652
    D9       -3.14157  -0.00000   0.00001   0.00003   0.00003  -3.14154
   D10       -1.03004   0.00062   0.00486   0.01194   0.01683  -1.01321
   D11        1.03011  -0.00062  -0.00484  -0.01167  -0.01654   1.01357
   D12       -3.14155   0.00000   0.00001   0.00015   0.00017  -3.14138
   D13       -3.13465   0.00013   0.00197   0.00122   0.00319  -3.13146
   D14       -1.07450  -0.00112  -0.00773  -0.02239  -0.03018  -1.10468
   D15        1.03703  -0.00049  -0.00288  -0.01057  -0.01347   1.02356
   D16        1.07455   0.00112   0.00774   0.02265   0.03046   1.10501
   D17        3.13470  -0.00013  -0.00195  -0.00096  -0.00291   3.13179
   D18       -1.03696   0.00050   0.00290   0.01087   0.01379  -1.02317
   D19       -1.02688   0.00063   0.00575   0.01146   0.01723  -1.00965
   D20        1.02680  -0.00063  -0.00577  -0.01176  -0.01755   1.00924
   D21        3.14149  -0.00000  -0.00003  -0.00014  -0.00017   3.14131
   D22        3.14093   0.00008  -0.00019   0.00165   0.00148  -3.14078
   D23       -1.08858  -0.00118  -0.01171  -0.02157  -0.03331  -1.12189
   D24        1.02611  -0.00055  -0.00597  -0.00995  -0.01593   1.01018
   D25        1.08850   0.00118   0.01169   0.02129   0.03301   1.12152
   D26       -3.14100  -0.00008   0.00017  -0.00193  -0.00177   3.14041
   D27       -1.02631   0.00055   0.00591   0.00968   0.01560  -1.01071
   D28       -1.02558   0.00058   0.00667   0.01141   0.01806  -1.00753
   D29        1.02257  -0.00057  -0.00642  -0.00794  -0.01434   1.00822
   D30        3.14015   0.00000   0.00014   0.00172   0.00186  -3.14118
   D31       -3.14073  -0.00000   0.00079   0.00059   0.00134  -3.13939
   D32       -1.09258  -0.00116  -0.01229  -0.01876  -0.03106  -1.12364
   D33        1.02500  -0.00058  -0.00573  -0.00909  -0.01485   1.01015
   D34        1.08941   0.00117   0.01249   0.02225   0.03476   1.12416
   D35        3.13756   0.00001  -0.00059   0.00290   0.00235   3.13991
   D36       -1.02805   0.00059   0.00597   0.01257   0.01856  -1.00949
   D37        1.04069  -0.00006  -0.00169   0.00046  -0.00125   1.03944
   D38        3.14105  -0.00000  -0.00000   0.00024   0.00024   3.14128
   D39       -1.04176   0.00006   0.00169   0.00004   0.00175  -1.04002
   D40       -1.06932  -0.00058  -0.00611  -0.01004  -0.01623  -1.08555
   D41        1.03104  -0.00052  -0.00442  -0.01026  -0.01474   1.01630
   D42        3.13141  -0.00047  -0.00273  -0.01046  -0.01323   3.11818
   D43       -3.13239   0.00047   0.00276   0.01096   0.01376  -3.11864
   D44       -1.03204   0.00053   0.00444   0.01074   0.01524  -1.01679
   D45        1.06834   0.00058   0.00614   0.01054   0.01676   1.08509
         Item               Value     Threshold  Converged?
 Maximum Force            0.005858     0.000450     NO 
 RMS     Force            0.001571     0.000300     NO 
 Maximum Displacement     0.036213     0.001800     NO 
 RMS     Displacement     0.009690     0.001200     NO 
 Predicted change in Energy=-8.612575D-04
 GradGradGradGradGradGradGradGradGradGradGradGradGradGradGradGradGradGrad

                          Input orientation:                          
 ---------------------------------------------------------------------
 Center     Atomic      Atomic             Coordinates (Angstroms)
 Number     Number       Type             X           Y           Z
 ---------------------------------------------------------------------
      1          6           0       -5.555212    1.864207   -0.000944
      2          1           0       -5.225362    2.410285    0.883747
      3          1           0       -5.225413    2.408664   -0.886650
      4          6           0       -5.045241    0.449410    0.000324
      5          1           0       -5.433485   -0.076204    0.879018
      6          1           0       -5.433437   -0.077737   -0.877474
      7          6           0       -3.529568    0.413760    0.000396
      8          1           0       -3.148606    0.951273   -0.877407
      9          1           0       -3.148661    0.952513    0.877460
     10          6           0       -2.978677   -0.997524    0.001371
     11          1           0       -3.359880   -1.536037    0.878528
     12          1           0       -3.360210   -1.537267   -0.874886
     13         17           0       -7.348958    1.923476   -0.000952
     14          6           0       -1.464508   -1.045134    0.001063
     15          1           0       -1.088925   -0.504298   -0.875217
     16          1           0       -1.088493   -0.503553    0.876697
     17          6           0       -0.931758   -2.462486    0.001462
     18          1           0       -1.280062   -3.008604   -0.879421
     19          1           0        0.159145   -2.489764    0.000925
     20          1           0       -1.279185   -3.007824    0.883172
 ---------------------------------------------------------------------
                    Distance matrix (angstroms):
                    1          2          3          4          5
     1  C    0.000000
     2  H    1.090724   0.000000
     3  H    1.090723   1.770398   0.000000
     4  C    1.503903   2.158219   2.158208   0.000000
     5  H    2.134091   2.495188   3.055396   1.095037   0.000000
     6  H    2.134076   3.055396   2.495104   1.095038   1.756493
     7  C    2.491391   2.764442   2.764486   1.516092   2.153355
     8  H    2.719078   3.089222   2.537163   2.149303   3.059642
     9  H    2.719240   2.537287   3.089557   2.149301   2.505729
    10  C    3.850720   4.176044   4.175945   2.522757   2.764991
    11  H    4.141812   4.365032   4.707093   2.748396   2.535931
    12  H    4.141477   4.706883   4.364572   2.748127   3.083724
    13  Cl   1.794725   2.351453   2.351449   2.734956   2.905529
    14  C    5.019774   5.182960   5.182775   3.880117   4.178805
    15  H    5.130486   5.357131   5.059250   4.162759   4.704871
    16  H    5.131094   5.060058   5.357659   4.163175   4.365958
    17  C    6.332187   6.554186   6.553801   5.039829   5.170105
    18  H    6.541629   6.930982   6.701689   5.187329   5.379777
[...]
 2840204,-0.00628148,0.00061149,-0.00039143,0.00181565,-0.00011857,-0.0
 0052402,-0.07456270,-0.04105251,0.06640174,0.08510497,0.00073927,0.000
 38861,-0.00078782,-0.00005917,0.00001022,-0.00005963,0.00020083,0.0003
 3615,0.00013346,-0.00050285,-0.00074542,-0.00078205,0.00043019,0.00027
 595,-0.00004769,-0.00007935,0.00003208,0.00024038,-0.04113304,-0.10206
 509,0.09493334,0.04352702,0.11485333,-0.00011756,0.00056927,-0.0000191
 7,-0.00003616,0.00004213,-0.00009935,0.00026372,-0.00051904,0.00011202
 ,0.00057173,-0.00054246,0.00063289,-0.00039024,-0.00004958,0.00140548,
 0.00047906,-0.00020319,0.00064809,0.06696396,0.09487081,-0.20659912,-0
 .07528107,-0.10665540,0.22196387,0.00054075,-0.00147701,-0.00112529,-0
 .00012459,0.00083092,0.00050042,-0.00000067,0.00004821,0.00007412,-0.0
 1381242,-0.01556487,-0.02838922,0.00179917,-0.00010706,0.00049419,-0.0
 0629148,0.00062926,0.00043104,-0.07455066,-0.04110293,-0.06631233,0.00
 341649,0.00548380,0.00863971,0.08509577,0.00090837,0.00045646,0.000810
 90,0.00014381,0.00029985,-0.00015526,-0.00012597,-0.00002361,0.0000617
 0,-0.00048191,-0.00079036,0.00078272,-0.00009580,0.00005602,-0.0002915
 7,0.00041217,0.00029725,0.00010558,-0.04120061,-0.10229110,-0.09503155
 ,0.00547693,0.00708307,0.01221974,0.04361492,0.11512856,0.00068004,-0.
 00040979,-0.00003851,-0.00047925,0.00040337,0.00006143,-0.00015291,-0.
 00012921,-0.00005118,-0.00047575,0.00044654,0.00063717,-0.00052966,0.0
 0025297,0.00051451,0.00031385,0.00008066,0.00152213,-0.06686633,-0.094
 91171,-0.20643938,-0.00866166,-0.01228160,-0.02089928,0.07520771,0.106
 78883,0.22175832,-0.00465519,-0.00200364,0.00000718,-0.00005692,0.0001
 0224,0.00029097,-0.00004487,0.00011647,-0.00029979,-0.01721973,0.03669
 925,-0.00002595,0.00159107,0.00029416,-0.00039249,0.00158099,0.0002910
 6,0.00038313,-0.08880805,0.03537927,-0.00005652,0.00301584,-0.00961714
 ,-0.00018972,0.00302176,-0.00961930,0.00023042,0.48947188,0.00057262,-
 0.00098939,0.00004928,-0.00015494,-0.00021876,0.00003541,-0.00011018,-
 0.00017360,-0.00008019,0.00585701,-0.00031007,0.00002992,-0.00153160,0
 .00052636,0.00008468,-0.00157995,0.00050363,-0.00013696,0.03549213,-0.
 18427383,0.00001361,0.00527879,-0.01766439,0.00062349,0.00529543,-0.01
 770869,-0.00054050,0.02969000,0.51196695,-0.00005542,0.00000199,-0.000
 75713,0.00019585,0.00027994,0.00027571,-0.00015725,-0.00026662,0.00025
 365,-0.00002417,-0.00001606,-0.00050368,0.00073173,-0.00071750,-0.0000
 5887,-0.00071098,0.00073942,-0.00003721,-0.00001856,0.00006266,-0.0792
 3454,-0.00979623,0.02672780,0.00029754,0.00979479,-0.02670893,0.000319
 58,-0.00001219,0.00000149,0.57030725,-0.00008208,0.00010736,-0.0001424
 6,0.00008817,0.00001480,0.00002434,-0.00004475,-0.00001982,0.00007853,
 0.00100139,0.00021880,-0.00093558,-0.00012384,0.00024015,0.00037858,0.
 00002585,-0.00003928,-0.00008016,0.00271179,0.00552908,-0.00986063,-0.
 00066264,0.00244676,0.00001609,0.00028432,-0.00064776,0.00036297,-0.07
 380763,-0.04086286,0.06658389,0.08455000,-0.00053723,-0.00001786,-0.00
 024050,0.00009384,0.00002310,0.00006402,0.00007828,0.00029993,-0.00017
 703,-0.00167008,0.00084619,0.00052120,0.00088111,0.00035271,-0.0004785
 9,0.00013113,0.00001486,-0.00006586,-0.00933547,-0.01777943,0.02634881
 ,0.00238639,-0.00546150,-0.00018669,-0.00064239,0.00138705,-0.00044695
 ,-0.04093793,-0.10296596,0.09514623,0.04353670,0.11564693,-0.00001106,
 -0.00014562,0.00038144,-0.00004645,-0.00003970,-0.00003971,0.00004258,
 -0.00017992,-0.00004340,0.00025637,-0.00024354,-0.00010782,-0.00058825
 ,0.00020329,0.00008737,0.00005868,0.00011267,0.00002167,-0.00016498,0.
 00036991,0.00059755,0.00003070,-0.00028528,0.00144633,-0.00038373,0.00
 042558,0.00060145,0.06690865,0.09516694,-0.20630681,-0.07506148,-0.106
 93174,0.22159362,0.00008769,0.00016634,0.00013615,-0.00009710,-0.00004
 448,-0.00008628,0.00001720,-0.00002540,-0.00000682,0.00103388,0.000185
 19,0.00092660,-0.00000222,-0.00002654,0.00004584,-0.00013527,0.0002559
 1,-0.00032550,0.00273342,0.00558252,0.00988937,0.00028322,-0.00065497,
 -0.00038979,-0.00067149,0.00243356,-0.00002540,-0.07387623,-0.04099688
 ,-0.06657858,0.00324932,0.00535594,0.00865968,0.08462160,-0.00044703,0
 .00001032,0.00023623,0.00006990,0.00030157,0.00016855,0.00003630,-0.00
 001229,-0.00004046,-0.00164705,0.00084492,-0.00055414,0.00009809,-0.00
 000178,0.00009056,0.00088767,0.00035795,0.00050217,-0.00933466,-0.0177
 9956,-0.02620278,-0.00063601,0.00139121,0.00039673,0.00236852,-0.00547
 678,0.00015027,-0.04108226,-0.10321071,-0.09526341,0.00535867,0.007157
 34,0.01228703,0.04367655,0.11593314,0.00021616,0.00018762,0.00027475,-
 0.00014157,0.00013533,-0.00004378,-0.00000077,0.00001719,0.00001361,-0
 .00021453,0.00022857,-0.00009126,-0.00007134,-0.00009404,-0.00000845,0
 .00054951,-0.00022317,0.00009796,0.00018517,-0.00031462,0.00039015,0.0
 0035890,-0.00045527,0.00068091,-0.00001903,0.00032252,0.00156105,-0.06
 689503,-0.09525380,-0.20598063,-0.00871324,-0.01235670,-0.02095406,0.0
 7508076,0.10705095,0.22127481,-0.12574862,-0.00618587,0.00006839,-0.02
 518357,0.00195899,0.00233253,-0.02524243,0.00193398,-0.00237733,-0.031
 78669,0.00014174,-0.00002717,0.00136638,-0.00053679,-0.00072163,0.0013
 9355,-0.00050753,0.00075461,0.00167544,0.00806445,0.00019987,0.0005192
 2,-0.00010079,-0.00007137,0.00047571,-0.00015603,-0.00009601,-0.002067
 71,-0.00221741,0.00001199,0.00002746,0.00030338,-0.00024115,-0.0000242
 0,0.00028022,0.00018628,0.20487405,-0.00556331,-0.03277765,-0.00001116
 ,-0.01030723,0.00180979,0.00215737,-0.01024924,0.00181446,-0.00215434,
 0.02806636,0.00210549,0.00001631,0.00005041,0.00141959,-0.00034235,0.0
 0003382,0.00140690,0.00032132,0.00027876,-0.00430568,-0.00005646,0.000
 19501,-0.00001564,-0.00024303,0.00020596,-0.00000670,0.00029488,0.0014
 8746,0.00087935,-0.00001498,-0.00007783,-0.00003815,0.00006412,-0.0000
 6558,-0.00002302,-0.00003531,-0.00424864,0.02840736,0.00015251,0.00004
 178,-0.03484058,-0.01836167,0.00185770,0.00484149,0.01826024,-0.001907
 58,0.00488178,-0.00000227,-0.00002746,0.00061840,-0.00053077,-0.000691
 73,0.00011753,0.00049364,0.00070751,0.00018145,0.00001126,0.00003379,0
 .00092674,-0.00049966,-0.00004125,0.00012814,0.00049291,0.00003393,0.0
 0015424,0.00000826,0.00002077,0.00040371,0.00003677,-0.00010199,-0.000
 01985,-0.00004966,0.00007005,0.00003200,-0.00002162,0.00000942,0.02259
 484,-0.00028552,-0.00041700,-0.00005006,0.00008125,0.00010290,0.000040
 69,0.00009636,0.00008760,0.00000010,0.00009118,0.00041299,0.00000675,-
 0.00009865,0.00006370,0.00005819,-0.00008441,0.00008470,-0.00006664,-0
 .01542113,0.00611182,-0.00008147,0.00096883,-0.00164138,0.00040892,0.0
 0101344,-0.00157719,-0.00035134,-0.19549723,-0.00361037,0.00006578,-0.
 01435019,-0.00047029,0.00032567,-0.01432605,-0.00045263,-0.00033878,0.
 00032030,-0.00006516,0.00001366,0.48234950,0.00108030,0.00115791,0.000
 00963,-0.00003530,0.00003848,-0.00008710,-0.00003526,0.00003370,0.0000
 8505,0.00102612,-0.00688884,0.00000841,-0.00001999,0.00005589,-0.00032
 676,-0.00001609,0.00006507,0.00032216,0.03608285,-0.00149994,0.0000123
 2,0.00016350,0.00091468,-0.00029044,0.00016923,0.00092076,0.00027089,-
 0.00333732,-0.07714173,0.00001375,-0.01564266,-0.00074548,0.00013129,-
 0.01567940,-0.00073276,-0.00013431,0.00125050,-0.00065975,-0.00000379,
 0.03187692,0.51613571,0.00009039,0.00005175,0.00075779,-0.00003567,0.0
 0006825,-0.00004308,-0.00003058,-0.00011130,-0.00006296,0.00000158,-0.
 00004974,-0.00064417,-0.00020179,-0.00012422,0.00022265,0.00018951,0.0
 0019633,0.00036274,-0.00000512,0.00003029,-0.00054714,-0.00092986,0.00
 054032,-0.00013549,0.00092957,-0.00056889,-0.00012320,0.00003104,-0.00
 005656,-0.07953411,0.02859766,-0.00041415,0.00023976,-0.02856201,0.000
 43233,0.00031086,-0.00003946,-0.00001022,-0.00003705,0.00007461,0.0000
 0625,0.57403541,0.00000049,0.00009517,-0.00009158,0.00001562,-0.000002
 07,0.00000999,-0.00001892,0.00005667,-0.00002114,-0.00008552,-0.000047
 42,-0.00024011,0.00024408,0.00007360,-0.00018721,-0.00002273,-0.000017
 45,0.00003507,0.00149303,-0.00148354,0.00089233,-0.00008823,0.00086585
 ,-0.00063093,-0.00000580,0.00005310,-0.00008073,-0.01458472,-0.0157431
 2,0.02851039,-0.00661416,0.00049995,-0.00027407,0.00190497,-0.00004653
 ,-0.00054072,0.00003591,-0.00002671,-0.00001331,-0.07459179,-0.0417566
 8,0.06729405,0.08468657,-0.00008215,-0.00001992,0.00001852,0.00003356,
 0.00001267,0.00000791,0.00001707,0.00000551,-0.00001112,0.00007684,0.0
 0010866,-0.00019628,0.00009411,-0.00008866,0.00003333,-0.00001508,0.00
 000194,0.00002091,0.00017564,0.00045380,-0.00062578,0.00027480,0.00040
 720,0.00010663,-0.00003266,0.00000070,-0.00008848,-0.00055442,-0.00109
 779,-0.00018958,0.00035995,0.00037721,-0.00011563,-0.00001299,-0.00001
 524,0.00017357,-0.00002535,-0.00000087,-0.00001145,-0.04189660,-0.1039
 4257,0.09628691,0.04403899,0.11633098,0.00005054,0.00000960,-0.0000396
 9,0.00000931,0.00000241,-0.00000622,0.00002063,-0.00000835,0.00002501,
 -0.00001832,-0.00034358,0.00032858,-0.00019087,0.00004023,-0.00000917,
 -0.00000012,-0.00000022,-0.00003679,-0.00036477,0.00019530,-0.00010929
 ,0.00035530,-0.00056418,0.00020884,0.00006104,0.00008942,-0.00005530,0
 .00053728,0.00018447,0.00008891,-0.00021748,-0.00016123,0.00159069,0.0
 0053867,-0.00021264,0.00061419,0.00003346,-0.00003070,0.00000582,0.067
 47912,0.09654579,-0.20805466,-0.07531194,-0.10794868,0.22320122,0.0000
 2897,0.00008954,0.00010454,-0.00002268,0.00005539,0.00000625,-0.000001
 99,-0.00000291,-0.00000643,-0.00006177,-0.00002401,0.00023119,-0.00003
 407,-0.00003594,-0.00000457,0.00023340,0.00005306,0.00016820,0.0014906
 7,-0.00148443,-0.00084940,0.00000008,0.00007149,0.00005697,-0.00010396
 ,0.00086046,0.00062271,-0.01458579,-0.01570509,-0.02849444,0.00190467,
 -0.00005870,0.00054774,-0.00663407,0.00046994,0.00026734,0.00003500,-0
 .00001337,0.00000642,-0.07469213,-0.04186159,-0.06734132,0.00346571,0.
 00549563,0.00868204,0.08477766,-0.00005803,-0.00002015,-0.00001207,0.0
 0001882,0.00000779,0.00000449,0.00001421,0.00000714,-0.00000565,0.0000
 9710,0.00012671,0.00018280,-0.00002856,-0.00001398,0.00000350,0.000089
 12,-0.00010215,-0.00003819,0.00017323,0.00045241,0.00067465,-0.0000245
 3,0.00001534,0.00005954,0.00026364,0.00039640,-0.00011896,-0.00054015,
 -0.00104440,0.00019310,-0.00001410,-0.00002173,-0.00017150,0.00033881,
 0.00034631,0.00010362,-0.00002770,0.00000752,0.00000034,-0.04201238,-0
 .10408646,-0.09635445,0.00549907,0.00723902,0.01223789,0.04415585,0.11
 648463,-0.00012590,-0.00006521,-0.00008197,-0.00000188,0.00002174,0.00
 002083,0.00002607,0.00002715,0.00001302,0.00003074,0.00040981,0.000323
 69,0.00000579,-0.00003972,0.00004057,0.00018280,-0.00008988,-0.0000904
 7,0.00034740,-0.00022841,-0.00021711,-0.00006913,-0.00008047,-0.000013
 48,-0.00035256,0.00058953,0.00025325,-0.00051450,-0.00008044,0.0001070
 8,-0.00055986,0.00019922,0.00065787,0.00022524,0.00013426,0.00156779,0
 .00000392,0.00004706,0.00003289,-0.06759119,-0.09660956,-0.20779111,-0
 .00869224,-0.01226320,-0.02114028,0.07535530,0.10801583,0.22292002,0.0
 0016516,-0.00026431,-0.00004087,-0.00020389,-0.00010656,-0.00004027,-0
 .00013808,-0.00006327,0.00004809,0.00012142,0.00229223,0.00003607,0.00
 001928,-0.00006096,0.00007099,-0.00002881,-0.00011376,-0.00011867,-0.0
 0655254,-0.00125126,-0.00019580,0.00000911,0.00003681,-0.00027631,0.00
 003672,0.00006611,0.00044370,-0.01637146,0.03678510,-0.00005820,0.0015
 7611,0.00031222,-0.00035593,0.00161808,0.00035071,0.00044295,-0.000595
 26,0.00031260,0.00004697,-0.09189875,0.03686141,-0.00002434,0.00394248
 ,-0.00971917,-0.00083236,0.00397930,-0.00971451,0.00086583,0.55951851,
 0.00023421,-0.00008671,0.00002088,-0.00007430,-0.00003396,-0.00002009,
 -0.00007085,-0.00002345,0.00000287,-0.00040336,0.00053783,0.00000003,0
 .00004353,0.00001451,-0.00003489,0.00003480,0.00001323,0.00002914,-0.0
 0114734,0.00001737,0.00000738,0.00012450,-0.00002166,-0.00014835,0.000
 11801,-0.00003294,0.00014475,0.00639029,-0.00263101,-0.00000745,-0.001
 33684,0.00054468,0.00003252,-0.00134226,0.00054746,-0.00002755,-0.0002
 6923,0.00009101,0.00000125,0.04020766,-0.19011131,0.00001764,0.0064875
 0,-0.01697198,-0.00034998,0.00651020,-0.01697297,0.00038832,0.02448842
 ,0.48448061,-0.00019451,0.00001463,0.00002074,0.00009816,0.00004198,0.
 00004287,0.00004324,-0.00000851,-0.00003973,-0.00009655,-0.00007094,0.
 00066330,-0.00007723,0.00004915,-0.00008216,0.00017297,0.00007476,0.00
 005357,0.00000745,0.00000470,-0.00030272,-0.00006776,-0.00030143,0.000
 25653,0.00009071,0.00025191,0.00016736,-0.00005188,-0.00023162,0.00002
 698,0.00061021,-0.00066703,0.00002710,-0.00054540,0.00081650,0.0000308
 5,0.00002981,-0.00005921,-0.00006135,0.00011076,0.00004857,-0.07954349
 ,-0.01092056,0.02597555,0.00128306,0.01088874,-0.02594335,0.00127111,-
 0.00015974,-0.00003891,0.55117874,-0.00010523,-0.00001280,-0.00003750,
 0.00003227,0.00001226,0.00000863,0.00003748,0.00001891,0.00000790,-0.0
 0000909,-0.00004686,-0.00003914,0.00000379,-0.00001893,0.00004449,-0.0
 0002222,-0.00001940,-0.00005154,0.00002964,0.00018094,0.00002461,-0.00
 000701,-0.00002978,0.00003078,-0.00010562,-0.00003932,-0.00008106,0.00
 117788,0.00026254,0.00117313,-0.00002204,-0.00007376,0.00005293,-0.000
 06208,0.00016264,-0.00039266,0.00007515,-0.00001739,0.00001301,0.00292
 339,0.00520672,0.01000265,0.00022137,-0.00077608,-0.00027112,-0.000316
 66,0.00235582,0.00019395,-0.07313059,-0.04077944,-0.06784822,0.0749301
 0,-0.00016891,-0.00004294,-0.00004367,0.00003488,0.00003120,0.00001996
 ,0.00005580,0.00002837,0.00000557,0.00004164,0.00010682,0.00009570,0.0
 0000572,-0.00003219,0.00005983,0.00006656,-0.00004569,-0.00006211,-0.0
 0000734,-0.00006494,0.00016159,-0.00003202,-0.00004484,0.00002253,-0.0
 0003823,0.00028995,0.00019512,-0.00158858,0.00105772,-0.00047530,0.000
 05475,0.00001003,0.00009846,0.00087412,0.00032837,0.00047933,0.0000704
 8,-0.00000173,0.00002070,-0.01006803,-0.01730088,-0.02672342,-0.000706
 77,0.00137503,0.00043578,0.00284504,-0.00554812,0.00049108,-0.04045991
 ,-0.10721967,-0.10226257,0.04299664,0.11988281,-0.00024220,-0.00008875
 ,-0.00008273,0.00006630,0.00005259,0.00002472,0.00010126,0.00005947,0.
 00002242,0.00002444,0.00003063,-0.00002895,0.00001563,-0.00007101,0.00
 012030,0.00001444,-0.00008742,-0.00012171,0.00025098,0.00006597,0.0000
 9769,-0.00002465,0.00000775,0.00005143,-0.00007306,0.00021523,0.000061
 23,-0.00020588,0.00046995,0.00006229,-0.00010117,-0.00011036,-0.000018
 66,0.00060727,-0.00021706,0.00003290,0.00013099,-0.00000038,0.00004087
 ,0.00035656,-0.00017962,0.00106979,0.00045373,-0.00051433,0.00060190,-
 0.00008480,0.00039215,0.00142320,-0.06764585,-0.10232595,-0.21450640,0
 .07448781,0.11343944,0.23008097,0.00004685,-0.00007542,0.00008711,0.00
 001964,-0.00000129,0.00001218,-0.00003138,-0.00002112,-0.00005732,-0.0
 0002200,0.00027535,-0.00002050,0.00001209,0.00005083,-0.00008445,0.000
 03468,0.00008150,0.00011019,-0.00066573,-0.00052750,0.00021588,0.00002
 929,0.00007165,-0.00013929,-0.00001441,0.00001219,-0.00003395,0.000550
 86,0.00309131,0.00000699,0.00034364,-0.00003696,-0.00012467,0.00029122
 ,-0.00005486,0.00007198,-0.00020110,0.00003323,-0.00004606,-0.00956198
 ,-0.00053376,-0.00004833,0.00031748,0.00018767,-0.00034625,0.00032727,
 0.00019524,0.00040102,-0.30903558,0.00145310,0.00010228,-0.00845193,0.
 00019080,0.00074999,0.33447908,0.00005308,0.00014532,-0.00000106,0.000
 00042,0.00000156,-0.00001117,0.00000244,-0.00000067,0.00001369,0.00007
 196,-0.00076432,0.00000252,-0.00002006,0.00000434,-0.00002549,-0.00001
 830,0.00000677,0.00002380,0.00201648,0.00055688,-0.00000255,-0.0000506
 5,0.00004841,0.00008660,-0.00004596,0.00005433,-0.00008625,0.00044013,
 -0.00645940,0.00000560,-0.00010312,0.00000662,-0.00028723,-0.00010032,
 0.00001231,0.00028548,0.00019899,-0.00008501,-0.00000034,0.03325528,0.
 00106806,-0.00001237,-0.00069497,0.00135899,0.00039882,-0.00069644,0.0
 0135716,-0.00040236,0.00063446,-0.04506229,0.00001521,-0.01520033,-0.0
 0046900,0.00152749,-0.00456680,0.04868608,0.00005688,0.00001068,0.0000
 1702,-0.00002325,-0.00001727,-0.00000970,-0.00001743,0.00000021,-0.000
 00674,0.00001185,-0.00000883,0.00000239,-0.00000326,0.00001418,-0.0000
 1556,-0.00001245,-0.00000383,0.00001708,0.00000115,0.00000680,0.000616
 44,0.00005019,-0.00008694,-0.00002596,-0.00005006,0.00008808,-0.000005
 40,0.00000466,0.00000185,0.00023665,-0.00041478,-0.00010092,0.00020424
 ,0.00041270,0.00009645,0.00023189,-0.00001706,0.00000438,-0.00000410,-
 0.00001790,-0.00001060,-0.00142006,-0.00025662,-0.00024723,0.00000942,
 0.00026315,0.00024972,0.00003123,0.00011878,0.00000443,-0.04554363,-0.
 02620995,0.00139331,0.00103172,-0.00013086,-0.00000857,0.04363744,-0.0
 0006069,0.00002306,0.00001923,0.00002236,0.00000692,0.00000573,0.00001
 577,-0.00000329,-0.00001010,-0.00002227,-0.00009248,0.00003501,-0.0000
 2133,0.00001231,0.00000127,0.00000877,0.00001248,0.00001172,0.00003865
 ,0.00020199,-0.00004202,-0.00010492,-0.00005521,0.00009150,-0.00000301
 ,-0.00003775,-0.00002735,0.00116525,0.00018746,-0.00116853,-0.00005539
 ,0.00018385,0.00036878,-0.00001190,-0.00005817,-0.00003137,0.00005139,
 -0.00002915,-0.00001064,0.00296358,0.00520049,-0.00999257,-0.00031583,
 0.00236022,-0.00021415,0.00021040,-0.00078095,0.00026920,-0.07303119,-
 0.04066860,0.06780751,0.00280139,0.00583337,-0.00888177,-0.00846797,-0
 .01517630,0.02623427,0.07481695,-0.00022244,-0.00002763,-0.00000674,0.
 00007381,0.00003559,0.00003073,0.00005582,0.00002785,-0.00002112,0.000
 00277,0.00006574,-0.00009815,0.00007938,-0.00001247,0.00002062,0.00002
 836,0.00000229,-0.00001237,-0.00000335,-0.00005935,-0.00021987,-0.0000
 4220,0.00026231,-0.00015929,-0.00001678,-0.00004021,-0.00001484,-0.001
 60961,0.00095571,0.00048787,0.00087724,0.00036348,-0.00049163,0.000079
 88,0.00004124,-0.00008942,0.00007260,-0.00002727,-0.00001165,-0.009992
 53,-0.01728053,0.02679523,0.00285535,-0.00553468,-0.00052015,-0.000724
 14,0.00136953,-0.00046474,-0.04038637,-0.10707874,0.10229061,0.0058176
 1,0.00765970,-0.01266577,0.00017485,-0.00046614,-0.00138591,0.04287975
 ,0.11974358,0.00034479,0.00006608,0.00004557,-0.00012616,-0.00006990,-
 0.00004992,-0.00011602,-0.00005283,0.00001564,0.00003907,0.00003267,-0
 .00002827,-0.00003980,0.00003244,-0.00005501,-0.00005020,0.00001996,0.
 00005104,-0.00025730,-0.00007547,0.00029679,0.00009117,-0.00015405,-0.
 00004021,-0.00001093,-0.00002948,0.00000052,0.00024238,-0.00030179,0.0
 0003361,-0.00060223,0.00016028,0.00004123,0.00004716,0.00005840,-0.000
 03555,-0.00013905,0.00004326,0.00000305,-0.00044343,0.00018807,0.00093
 752,0.00006559,-0.00041159,0.00149375,-0.00041961,0.00052656,0.0006718
 6,0.06767495,0.10230394,-0.21494274,0.00889130,0.01264866,-0.01996299,
 -0.00072593,-0.00152182,0.00099563,-0.07446574,-0.11346340,0.23052847\
 \0.00001267,0.00002181,-0.00000482,-0.00000251,-0.00000549,-0.00000562
 ,-0.00000297,-0.00000516,0.00000666,-0.00000473,-0.00001281,0.00000056
 ,0.00000276,0.00000520,-0.00000500,0.00000115,0.00000484,0.00000596,0.
 00001043,0.00000163,-0.00000261,-0.00000259,-0.00000128,0.00000702,-0.
 00000115,-0.00000243,-0.00000409,-0.00001187,-0.00000352,0.00000355,0.
 00000229,0.00000206,-0.00000468,0.00000159,0.00000196,0.00000710,0.000
 00004,-0.00000221,-0.00000083,0.00000712,0.00000445,0.00000136,-0.0000
 0177,-0.00000415,0.00000596,-0.00000270,-0.00000316,-0.00000411,-0.000
 00180,-0.00000517,-0.00000521,0.00000045,0.00000073,0.00000579,-0.0000
 0777,0.00000027,-0.00000139,0.00000133,0.00000241,-0.00000561\\\@


 "TIGER, TIGER BURNING BRIGHT
 IN THE FOREST OF THE NIGHT.
 WHAT IMMORTAL HAND OR EYE
 CAN FRAME THY FEARFUL SYMMETRYE?"
                     - WILLIAM BLAKE
 Job cpu time:       1 days 20 hours 44 minutes 34.2 seconds.
 File lengths (MBytes):  RWF=    876 Int=      0 D2E=      0 Chk=     29 Scr=      1
 Normal termination of Gaussian 09 at Fri Jul  7 01:24:54 2017.
220957.97user 631.15system 2:34:11elapsed 2395%CPU (0avgtext+0avgdata 8711620maxresident)k
161288inputs+9073784outputs (165major+299405252minor)pagefaults 0swaps
