 Entering Gaussian System, Link 0=g09
 Initial command:
 /soft/gaussian/g09.d01_itasca/g09/l1.exe "/scratch/jgoodpas/2034007.node1081.localdomain/Gau-6735.inp" -scrdir="/scratch/jgoodpas/2034007.node1081.localdomain/"
 Entering Link 1 = /soft/gaussian/g09.d01_itasca/g09/l1.exe PID=      6736.
  
 Copyright (c) 1988,1990,1992,1993,1995,1998,2003,2009,2013,
            Gaussian, Inc.  All Rights Reserved.
  
 This is part of the Gaussian(R) 09 program.  It is based on
 the Gaussian(R) 03 system (copyright 2003, Gaussian, Inc.),
 the Gaussian(R) 98 system (copyright 1998, Gaussian, Inc.),
 the Gaussian(R) 94 system (copyright 1995, Gaussian, Inc.),
 the Gaussian 92(TM) system (copyright 1992, Gaussian, Inc.),
 the Gaussian 90(TM) system (copyright 1990, Gaussian, Inc.),
 the Gaussian 88(TM) system (copyright 1988, Gaussian, Inc.),
 the Gaussian 86(TM) system (copyright 1986, Carnegie Mellon
 University), and the Gaussian 82(TM) system (copyright 1983,
 Carnegie Mellon University). Gaussian is a federally registered
 trademark of Gaussian, Inc.
  
 This software contains proprietary and confidential information,
 including trade secrets, belonging to Gaussian, Inc.
  
 This software is provided under written license and may be
 used, copied, transmitted, or stored only in accord with that
 written license.
  
 The following legend is applicable only to US Government
 contracts under FAR:
  
                    RESTRICTED RIGHTS LEGEND
  
 Use, reproduction and disclosure by the US Government is
 subject to restrictions as set forth in subparagraphs (a)
 and (c) of the Commercial Computer Software - Restricted
 Rights clause in FAR 52.227-19.
  
 Gaussian, Inc.
 340 Quinnipiac St., Bldg. 40, Wallingford CT 06492
  
  
 ---------------------------------------------------------------
 Warning -- This program may not be used in any manner that
 competes with the business of Gaussian, Inc. or will provide
 assistance to any competitor of Gaussian, Inc.  The licensee
 of this program is prohibited from giving any competitor of
 Gaussian, Inc. access to this program.  By using this program,
 the user acknowledges that Gaussian, Inc. is engaged in the
 business of creating and licensing software in the field of
 computational chemistry and represents and warrants to the
 licensee that it is not a competitor of Gaussian, Inc. and that
 it will not use this program in any manner prohibited above.
 ---------------------------------------------------------------
  

 Cite this work as:
 Gaussian 09, Revision D.01,
 M. J. Frisch, G. W. Trucks, H. B. Schlegel, G. E. Scuseria, 
 M. A. Robb, J. R. Cheeseman, G. Scalmani, V. Barone, B. Mennucci, 
 G. A. Petersson, H. Nakatsuji, M. Caricato, X. Li, H. P. Hratchian, 
 A. F. Izmaylov, J. Bloino, G. Zheng, J. L. Sonnenberg, M. Hada, 
 M. Ehara, K. Toyota, R. Fukuda, J. Hasegawa, M. Ishida, T. Nakajima, 
 Y. Honda, O. Kitao, H. Nakai, T. Vreven, J. A. Montgomery, Jr., 
 J. E. Peralta, F. Ogliaro, M. Bearpark, J. J. Heyd, E. Brothers, 
 K. N. Kudin, V. N. Staroverov, T. Keith, R. Kobayashi, J. Normand, 
 K. Raghavachari, A. Rendell, J. C. Burant, S. S. Iyengar, J. Tomasi, 
 M. Cossi, N. Rega, J. M. Millam, M. Klene, J. E. Knox, J. B. Cross, 
 V. Bakken, C. Adamo, J. Jaramillo, R. Gomperts, R. E. Stratmann, 
 O. Yazyev, A. J. Austin, R. Cammi, C. Pomelli, J. W. Ochterski, 
 R. L. Martin, K. Morokuma, V. G. Zakrzewski, G. A. Voth, 
 P. Salvador, J. J. Dannenberg, S. Dapprich, A. D. Daniels, 
 O. Farkas, J. B. Foresman, J. V. Ortiz, J. Cioslowski, 
 and D. J. Fox, Gaussian, Inc., Wallingford CT, 2013.
 
 ******************************************
 Gaussian 09:  ES64L-G09RevD.01 24-Apr-2013
                17-Oct-2017 
 ******************************************
 %LindaWorkers=ic-node0236
 %Mem=11800mb
 %NProcShared=8
 Will use up to    8 processors via shared memory.
 %chk=dimer.chk
 SetLPE:  input flags=" -workerwait 250000 -opt "Tsnet.Node.lindarsharg: ssh " "
 SetLPE:    new flags=" -workerwait 250000 -opt "Tsnet.Node.lindarsharg: ssh "  -nodelist 'ic-node0236'"
 Will use up to    1 processors via Linda.
 -------------------------------------------------------------
 # Opt=(Z-mat,maxcycle=200) m06/def2svp Integral=SuperFineGrid
 -------------------------------------------------------------
 1/6=200,10=7,14=-1,18=40,26=5,38=1/1,3;
 2/12=2,17=6,18=5,29=3,40=1/2;
 3/5=43,7=101,11=2,16=1,25=1,30=1,71=1,74=-54,75=-7/1,2,3;
 4//1;
 5/5=2,38=5/2;
 6/7=2,8=2,9=2,10=2,28=1/1;
 7/29=1/1,2,3,16;
 1/6=200,10=7,14=-1,18=40,26=5/3(2);
 2/29=3/2;
 99//99;
 2/29=3/2;
 3/5=43,7=101,11=2,16=1,25=1,30=1,71=1,74=-54,75=-7/1,2,3;
 4/5=5,16=3,69=1/1;
 5/5=2,38=5/2;
 7//1,2,3,16;
 1/6=200,14=-1,18=40,26=5/3(-5);
 2/29=3/2;
 6/7=2,8=2,9=2,10=2,19=2,28=1/1;
 99/9=1/99;
 ------
 C12H24
 ------
 Symbolic Z-matrix:
 Charge =  0 Multiplicity = 1
 C
 C                    1    B1
 H                    1    B2       2    A2
 H                    1    B3       2    A3       3    D3       0
 H                    1    B4       2    A4       3    D4       0
 C                    2    B5       1    A5       3    D5       0
 H                    2    B6       1    A6       3    D6       0
 H                    2    B7       1    A7       3    D7       0
 C                    6    B8       2    A8       1    D8       0
 H                    6    B9       2    A9       1    D9       0
 H                    6    B10      2    A10      1    D10      0
 C                    9    B11      6    A11      2    D11      0
 H                    9    B12      6    A12      2    D12      0
 H                    9    B13      6    A13      2    D13      0
 C                    12   B14      9    A14      6    D14      0
 H                    12   B15      9    A15      6    D15      0
 H                    12   B16      9    A16      6    D16      0
 C                    15   B17      12   A17      9    D17      0
 H                    15   B18      12   A18      9    D18      0
 H                    15   B19      12   A19      9    D19      0
 C                    18   B20      15   A20      12   D20      0
 H                    18   B21      15   A21      12   D21      0
 H                    18   B22      15   A22      12   D22      0
 C                    21   B23      18   A23      15   D23      0
 H                    21   B24      18   A24      15   D24      0
 H                    21   B25      18   A25      15   D25      0
 C                    24   B26      21   A26      18   D26      0
 H                    24   B27      21   A27      18   D27      0
 H                    24   B28      21   A28      18   D28      0
 C                    27   B29      24   A29      21   D29      0
 H                    27   B30      24   A30      21   D30      0
 H                    27   B31      24   A31      21   D31      0
 C                    30   B32      27   A32      24   D32      0
 H                    33   B33      30   A33      27   D33      0
 H                    33   B34      30   A34      27   D34      0
 H                    30   B35      27   A35      24   D35      0
       Variables:
  B1                    1.52037                  
  B2                    1.09449                  
  A2                  110.2615                   
  B3                    1.09469                  
  A3                  110.99941                  
  D3                  240.2622                   
  B4                    1.09468                  
  A4                  111.00291                  
  D4                  119.74267                  
  B5                    1.52846                  
  A5                  111.49348                  
  D5                  180.02355                  
  B6                    1.09622                  
  A6                  109.14402                  
  D6                   58.466                    
  B7                    1.09622                  
  A7                  109.14651                  
  D7                  301.57536                  
  B8                    1.52957                  
  A8                  111.33085                  
  D8                  180.06732                  
  B9                    1.09685                  
  A9                  109.56808                  
  D9                   58.69294                  
  B10                   1.09685                  
  A10                 109.56982                  
  D10                 301.43153                  
  B11                   1.52959                  
  A11                 111.32932                  
  D11                 180.0495                   
  B12                   1.09682                  
  A12                 109.56214                  
  D12                  58.69169                  
  B13                   1.09682                  
  A13                 109.57144                  
  D13                 301.40424                  
  B14                   1.52958                  
  A14                 111.33412                  
  D14                 180.11548                  
  B15                   1.09681                  
  A15                 109.56324                  
  D15                  58.75236                  
  B16                   1.09681                  
  A16                 109.56894                  
  D16                 301.4668                   
  B17                   1.52958                  
  A17                 111.32441                  
  D17                 180.06818                  
  B18                   1.09681                  
  A18                 109.56207                  
  D18                  58.71257                  
  B19                   1.09681                  
  A19                 109.57415                  
  D19                 301.42268                  
  B20                   1.5296                   
  A20                 111.33392                  
  D20                 180.12584                  
  B21                   1.09681                  
  A21                 109.56096                  
  D21                  58.76319                  
  B22                   1.09681                  
  A22                 109.57002                  
  D22                 301.47796                  
  B23                   1.53006                  
  A23                 111.33208                  
  D23                 180.06793                  
  B24                   1.09681                  
  A24                 109.55355                  
  D24                  58.71484                  
  B25                   1.09681                  
  A25                 109.57481                  
  D25                 301.41764                  
  B26                   1.52997                  
  A26                 111.27387                  
  D26                 180.07455                  
  B27                   1.09745                  
  A27                 109.45602                  
  D27                  58.51678                  
  B28                   1.09744                  
  A28                 109.4982                   
  D28                 301.54273                  
  B29                   1.50175                  
  A29                 111.29171                  
  D29                 180.59371                  
  B30                   1.0969                   
  A30                 109.65896                  
  D30                  57.82495                  
  B31                   1.09657                  
  A31                 109.82846                  
  D31                 300.6713                   
  B32                   1.33889                  
  A32                 124.10415                  
  D32                 241.95558                  
  B33                   1.08555                  
  A33                 121.75919                  
  B34                   1.08571                  
  A34                 120.7488                   
  B35                   1.08828                  
  A35                 116.90896                  
  D35                  62.58421                  
       Constants:
  D33                 120.                       
  D34                 300.                       
 

 GradGradGradGradGradGradGradGradGradGradGradGradGradGradGradGradGradGrad
 Berny optimization.
 Initialization pass.
                       ----------------------------
                       !    Initial Parameters    !
                       ! (Angstroms and Degrees)  !
 ----------------------                            ----------------------
 !      Name          Value   Derivative information (Atomic Units)     !
 ------------------------------------------------------------------------
 !       B1          1.5204   estimate D2E/DX2                          !
 !       B2          1.0945   estimate D2E/DX2                          !
 !       A2        110.2615   estimate D2E/DX2                          !
 !       B3          1.0947   estimate D2E/DX2                          !
 !       A3        110.9994   estimate D2E/DX2                          !
 !       D3        240.2622   estimate D2E/DX2                          !
 !       B4          1.0947   estimate D2E/DX2                          !
 !       A4        111.0029   estimate D2E/DX2                          !
 !       D4        119.7427   estimate D2E/DX2                          !
 !       B5          1.5285   estimate D2E/DX2                          !
 !       A5        111.4935   estimate D2E/DX2                          !
 !       D5        180.0236   estimate D2E/DX2                          !
 !       B6          1.0962   estimate D2E/DX2                          !
 !       A6        109.144    estimate D2E/DX2                          !
 !       D6         58.466    estimate D2E/DX2                          !
 !       B7          1.0962   estimate D2E/DX2                          !
 !       A7        109.1465   estimate D2E/DX2                          !
 !       D7        301.5754   estimate D2E/DX2                          !
 !       B8          1.5296   estimate D2E/DX2                          !
 !       A8        111.3308   estimate D2E/DX2                          !
 !       D8        180.0673   estimate D2E/DX2                          !
 !       B9          1.0969   estimate D2E/DX2                          !
 !       A9        109.5681   estimate D2E/DX2                          !
 !       D9         58.6929   estimate D2E/DX2                          !
 !       B10         1.0969   estimate D2E/DX2                          !
 !       A10       109.5698   estimate D2E/DX2                          !
 !       D10       301.4315   estimate D2E/DX2                          !
 !       B11         1.5296   estimate D2E/DX2                          !
 !       A11       111.3293   estimate D2E/DX2                          !
 !       D11       180.0495   estimate D2E/DX2                          !
 !       B12         1.0968   estimate D2E/DX2                          !
 !       A12       109.5621   estimate D2E/DX2                          !
 !       D12        58.6917   estimate D2E/DX2                          !
 !       B13         1.0968   estimate D2E/DX2                          !
 !       A13       109.5714   estimate D2E/DX2                          !
 !       D13       301.4042   estimate D2E/DX2                          !
 !       B14         1.5296   estimate D2E/DX2                          !
 !       A14       111.3341   estimate D2E/DX2                          !
 !       D14       180.1155   estimate D2E/DX2                          !
 !       B15         1.0968   estimate D2E/DX2                          !
 !       A15       109.5632   estimate D2E/DX2                          !
 !       D15        58.7524   estimate D2E/DX2                          !
 !       B16         1.0968   estimate D2E/DX2                          !
 !       A16       109.5689   estimate D2E/DX2                          !
 !       D16       301.4668   estimate D2E/DX2                          !
 !       B17         1.5296   estimate D2E/DX2                          !
 !       A17       111.3244   estimate D2E/DX2                          !
 !       D17       180.0682   estimate D2E/DX2                          !
 !       B18         1.0968   estimate D2E/DX2                          !
 !       A18       109.5621   estimate D2E/DX2                          !
 !       D18        58.7126   estimate D2E/DX2                          !
 !       B19         1.0968   estimate D2E/DX2                          !
 !       A19       109.5742   estimate D2E/DX2                          !
 !       D19       301.4227   estimate D2E/DX2                          !
 !       B20         1.5296   estimate D2E/DX2                          !
 !       A20       111.3339   estimate D2E/DX2                          !
 !       D20       180.1258   estimate D2E/DX2                          !
 !       B21         1.0968   estimate D2E/DX2                          !
 !       A21       109.561    estimate D2E/DX2                          !
 !       D21        58.7632   estimate D2E/DX2                          !
 !       B22         1.0968   estimate D2E/DX2                          !
 !       A22       109.57     estimate D2E/DX2                          !
 !       D22       301.478    estimate D2E/DX2                          !
 !       B23         1.5301   estimate D2E/DX2                          !
 !       A23       111.3321   estimate D2E/DX2                          !
 !       D23       180.0679   estimate D2E/DX2                          !
 !       B24         1.0968   estimate D2E/DX2                          !
 !       A24       109.5536   estimate D2E/DX2                          !
 !       D24        58.7148   estimate D2E/DX2                          !
 !       B25         1.0968   estimate D2E/DX2                          !
 !       A25       109.5748   estimate D2E/DX2                          !
 !       D25       301.4176   estimate D2E/DX2                          !
 !       B26         1.53     estimate D2E/DX2                          !
 !       A26       111.2739   estimate D2E/DX2                          !
 !       D26       180.0745   estimate D2E/DX2                          !
 !       B27         1.0975   estimate D2E/DX2                          !
 !       A27       109.456    estimate D2E/DX2                          !
 !       D27        58.5168   estimate D2E/DX2                          !
 !       B28         1.0974   estimate D2E/DX2                          !
 !       A28       109.4982   estimate D2E/DX2                          !
 !       D28       301.5427   estimate D2E/DX2                          !
 !       B29         1.5018   estimate D2E/DX2                          !
 !       A29       111.2917   estimate D2E/DX2                          !
 !       D29       180.5937   estimate D2E/DX2                          !
 !       B30         1.0969   estimate D2E/DX2                          !
 !       A30       109.659    estimate D2E/DX2                          !
 !       D30        57.8249   estimate D2E/DX2                          !
 !       B31         1.0966   estimate D2E/DX2                          !
 !       A31       109.8285   estimate D2E/DX2                          !
 !       D31       300.6713   estimate D2E/DX2                          !
 !       B32         1.3389   estimate D2E/DX2                          !
 !       A32       124.1042   estimate D2E/DX2                          !
 !       D32       241.9556   estimate D2E/DX2                          !
 !       B33         1.0856   estimate D2E/DX2                          !
 !       A33       121.7592   estimate D2E/DX2                          !
 !       B34         1.0857   estimate D2E/DX2                          !
 !       A34       120.7488   estimate D2E/DX2                          !
 !       B35         1.0883   estimate D2E/DX2                          !
 !       A35       116.909    estimate D2E/DX2                          !
 !       D35        62.5842   estimate D2E/DX2                          !
 !       D33       120.0      Frozen                                    !
 !       D34       300.0      Frozen                                    !
 ------------------------------------------------------------------------
 Trust Radius=3.00D-01 FncErr=1.00D-07 GrdErr=1.00D-07
 Number of steps in this run=    200 maximum allowed number of steps=    204.
 GradGradGradGradGradGradGradGradGradGradGradGradGradGradGradGradGradGrad

 ---------------------------------------------------------------------------------------------------
                            Z-MATRIX (ANGSTROMS AND DEGREES)
   CD    Cent   Atom    N1       Length/X        N2       Alpha/Y        N3        Beta/Z          J
 ---------------------------------------------------------------------------------------------------
      1      1  C 
      2      2  C        1   1.520370(     1)
      3      3  H        1   1.094490(     2)      2  110.262(    36)
      4      4  H        1   1.094690(     3)      2  110.999(    37)      3  240.262(    70)      0
      5      5  H        1   1.094680(     4)      2  111.003(    38)      3  119.743(    71)      0
      6      6  C        2   1.528460(     5)      1  111.493(    39)      3  180.024(    72)      0
      7      7  H        2   1.096220(     6)      1  109.144(    40)      3   58.466(    73)      0
      8      8  H        2   1.096220(     7)      1  109.147(    41)      3  301.575(    74)      0
      9      9  C        6   1.529570(     8)      2  111.331(    42)      1  180.067(    75)      0
     10     10  H        6   1.096850(     9)      2  109.568(    43)      1   58.693(    76)      0
     11     11  H        6   1.096850(    10)      2  109.570(    44)      1  301.432(    77)      0
     12     12  C        9   1.529590(    11)      6  111.329(    45)      2  180.050(    78)      0
     13     13  H        9   1.096820(    12)      6  109.562(    46)      2   58.692(    79)      0
     14     14  H        9   1.096820(    13)      6  109.571(    47)      2  301.404(    80)      0
     15     15  C       12   1.529580(    14)      9  111.334(    48)      6  180.115(    81)      0
     16     16  H       12   1.096810(    15)      9  109.563(    49)      6   58.752(    82)      0
     17     17  H       12   1.096810(    16)      9  109.569(    50)      6  301.467(    83)      0
     18     18  C       15   1.529580(    17)     12  111.324(    51)      9  180.068(    84)      0
     19     19  H       15   1.096810(    18)     12  109.562(    52)      9   58.713(    85)      0
     20     20  H       15   1.096810(    19)     12  109.574(    53)      9  301.423(    86)      0
     21     21  C       18   1.529600(    20)     15  111.334(    54)     12  180.126(    87)      0
     22     22  H       18   1.096810(    21)     15  109.561(    55)     12   58.763(    88)      0
     23     23  H       18   1.096810(    22)     15  109.570(    56)     12  301.478(    89)      0
     24     24  C       21   1.530060(    23)     18  111.332(    57)     15  180.068(    90)      0
     25     25  H       21   1.096810(    24)     18  109.554(    58)     15   58.715(    91)      0
     26     26  H       21   1.096810(    25)     18  109.575(    59)     15  301.418(    92)      0
     27     27  C       24   1.529970(    26)     21  111.274(    60)     18  180.075(    93)      0
     28     28  H       24   1.097450(    27)     21  109.456(    61)     18   58.517(    94)      0
     29     29  H       24   1.097440(    28)     21  109.498(    62)     18  301.543(    95)      0
     30     30  C       27   1.501750(    29)     24  111.292(    63)     21  180.594(    96)      0
     31     31  H       27   1.096900(    30)     24  109.659(    64)     21   57.825(    97)      0
     32     32  H       27   1.096570(    31)     24  109.828(    65)     21  300.671(    98)      0
     33     33  C       30   1.338890(    32)     27  124.104(    66)     24  241.956(    99)      0
     34     34  H       33   1.085550(    33)     30  121.759(    67)     27  120.000(   100)      0
     35     35  H       33   1.085710(    34)     30  120.749(    68)     27  300.000(   101)      0
     36     36  H       30   1.088280(    35)     27  116.909(    69)     24   62.584(   102)      0
 ---------------------------------------------------------------------------------------------------
                         Z-Matrix orientation:                         
 ---------------------------------------------------------------------
 Center     Atomic      Atomic             Coordinates (Angstroms)
 Number     Number       Type             X           Y           Z
 ---------------------------------------------------------------------
      1          6           0        0.000000    0.000000    0.000000
      2          6           0        0.000000    0.000000    1.520370
      3          1           0        1.026765    0.000000   -0.379028
      4          1           0       -0.506937    0.887394   -0.392291
      5          1           0       -0.506996   -0.887322   -0.392350
      6          6           0       -1.422170   -0.000585    2.080391
      7          1           0        0.541621    0.882669    1.879869
      8          1           0        0.542250   -0.882265    1.879914
      9          6           0       -1.417829    0.001091    3.609954
     10          1           0       -1.960390   -0.883823    1.715305
     11          1           0       -1.961845    0.881033    1.713538
     12          6           0       -2.841064   -0.000725    4.170352
     13          1           0       -0.880476    0.884957    3.974709
     14          1           0       -0.877544   -0.880117    3.976802
     15          6           0       -2.836857    0.003823    5.699919
     16          1           0       -3.377699   -0.885606    3.807035
     17          1           0       -3.382035    0.879433    3.802024
     18          6           0       -4.260172    0.000310    6.260077
     19          1           0       -2.301279    0.889417    6.063059
     20          1           0       -2.294922   -0.875633    6.068507
     21          6           0       -4.256232    0.007986    7.789653
     22          1           0       -4.794941   -0.886396    5.898461
     23          1           0       -4.802856    0.878620    5.889863
     24          6           0       -5.680003    0.002782    8.349950
     25          1           0       -3.722490    0.895453    8.150919
     26          1           0       -3.712685   -0.869677    8.160135
     27          6           0       -5.674519    0.012323    9.879880
     28          1           0       -6.213070   -0.884521    7.985355
     29          1           0       -6.223979    0.879534    7.976089
     30          6           0       -7.071612   -0.007278   10.430335
     31          1           0       -5.128482    0.892261   10.241464
     32          1           0       -5.141577   -0.869376   10.255440
     33          6           0       -7.595135    0.967368   11.184400
     34          1           0       -8.479555    1.515987   10.875794
     35          1           0       -7.143971    1.237321   12.134317
     36          1           0       -7.679357   -0.880293   10.200458
 ---------------------------------------------------------------------
                    Distance matrix (angstroms):
                    1          2          3          4          5
     1  C    0.000000
     2  C    1.520370   0.000000
     3  H    1.094490   2.159157   0.000000
     4  H    1.094690   2.168577   1.771972   0.000000
     5  H    1.094680   2.168613   1.771988   1.774717   0.000000
     6  C    2.520038   1.528460   3.470738   2.782142   2.781779
     7  H    2.146244   1.096220   2.473274   2.502440   3.065199
     8  H    2.146276   1.096220   2.473047   3.065192   2.502823
     9  C    3.878402   2.525193   4.678463   4.199193   4.199682
    10  H    2.750735   2.159230   3.753727   3.113149   2.560191
    11  H    2.749776   2.159252   3.753244   2.559554   3.111018
    12  C    5.046135   3.885106   5.971344   5.201405   5.201170
    13  H    4.166137   2.753574   4.834847   4.382948   4.727755
    14  H    4.166491   2.752953   4.834693   4.727624   4.384843
    15  C    6.366856   5.051376   7.202859   6.582116   6.583171
    16  H    5.165913   4.173965   6.140580   5.386942   5.086823
    17  H    5.164005   4.173428   6.139390   5.085128   5.383311
    18  C    7.572162   6.372903   8.487015   7.689454   7.689539
    19  H    6.545810   5.169427   7.305301   6.700091   6.931707
    20  H    6.546768   5.169037   7.305548   6.931599   6.703692
    21  C    8.876613   7.577564   9.728179   9.042941   9.044530
    22  H    7.653038   6.553231   8.607254   7.817088   7.613197
    23  H    7.650482   6.552241   8.605547   7.610549   7.812756
    24  C   10.098718   8.882882  11.007988  10.196564  10.197063
    25  H    9.005346   7.656563   9.803941   9.128324   9.300814
    26  H    9.007118   7.656817   9.804898   9.300974   9.133551
    27  C   11.393522  10.103550  12.253675  11.532006  11.533922
    28  H   10.156304   9.010030  11.097769  10.290024  10.136332
    29  H   10.155269   9.010427  11.097515  10.134812  10.287684
    30  C   12.601572  11.375202  13.506520  12.689548  12.688545
    31  H   11.488475  10.156522  12.307642  11.594631  11.730433
    32  H   11.505028  10.173154  12.324616  11.744799  11.612713
    33  C   13.554065  12.329451  14.456342  13.574562  13.700465
    34  H   13.873859  12.717115  14.810109  13.817652  14.011019
    35  H   14.135379  12.853916  14.995856  14.180571  14.334606
    36  H   12.798312  11.622882  13.729421  12.914127  12.792592
                    6          7          8          9         10
     6  C    0.000000
     7  H    2.162596   0.000000
     8  H    2.162521   1.764935   0.000000
     9  C    1.529570   2.758590   2.759577   0.000000
    10  H    1.096850   3.067188   2.508049   2.160357   0.000000
    11  H    1.096850   2.508986   3.067147   2.160241   1.764858
    12  C    2.526103   4.179624   4.179717   1.529590   2.753671
    13  H    2.160106   2.531941   3.087943   1.096820   3.065894
    14  H    2.160225   3.085219   2.532343   1.096820   2.507378
    15  C    3.886174   5.174869   5.176481   2.526184   4.175316
    16  H    2.754752   4.711883   4.368044   2.160130   2.526678
    17  H    2.753093   4.369184   4.711486   2.160203   3.079698
    18  C    5.052132   6.559116   6.559576   3.886138   5.169685
    19  H    4.174516   5.057787   5.359405   2.754511   4.707818
    20  H    4.175222   5.355585   5.059042   2.753620   4.366045
    21  C    6.373983   7.662246   7.664398   5.052372   6.554687
    22  H    5.170871   6.910685   6.680894   4.174899   5.053066
    23  H    5.168570   6.681580   6.910178   4.174500   5.349089
    24  C    7.578689   9.019133   9.020039   6.374456   7.657682
    25  H    6.553295   7.583462   7.789339   5.170272   6.905647
    26  H    6.554775   7.785345   7.585896   5.169986   6.678816
    27  C    8.883393  10.168485  10.170937   7.578358   9.014328
    28  H    7.655238   9.275008   9.105535   6.551548   7.576200
    29  H    7.654491   9.106989   9.276268   6.552394   7.777212
    30  C   10.081558  11.483196  11.482430   8.859059  10.141236
    31  H    9.007611  10.102794  10.257762   7.651148   9.267507
    32  H    9.023315  10.272224  10.122030   7.667235   9.113400
    33  C   11.041984  12.360756  12.498466   9.821662  11.173228
    34  H   11.378304  12.755759  12.964198  10.244770  11.496658
    35  H   11.634125  12.819821  12.989358  10.343198  11.828972
    36  H   10.288916  11.828979  11.697277   9.133363  10.232518
                   11         12         13         14         15
    11  H    0.000000
    12  C    2.754352   0.000000
    13  H    2.506446   2.160234   0.000000
    14  H    3.065897   2.160139   1.765078   0.000000
    15  C    4.174491   1.529580   2.753212   2.754885   0.000000
    16  H    3.083567   1.096810   3.065801   2.505919   2.160233
    17  H    2.525611   1.096810   2.507518   3.065785   2.160074
    18  C    5.170010   2.526029   4.174668   4.175006   1.529580
    19  H    4.362754   2.160107   2.525848   3.083949   1.096810
    20  H    4.707714   2.160261   3.079663   2.526699   1.096810
    21  C    6.553289   3.886145   5.169004   5.171276   2.526189
    22  H    5.353860   2.754707   4.707605   4.363349   2.160092
    23  H    5.051043   2.752925   4.364965   4.707550   2.160208
    24  C    7.657544   5.052586   6.554115   6.554963   3.886662
    25  H    6.673826   4.174322   5.051523   5.354402   2.754406
    26  H    6.905725   4.175306   5.349574   5.053554   2.753678
    27  C    9.012644   6.373959   7.656068   7.658573   5.052175
    28  H    7.779832   5.167763   6.903107   6.673556   4.172671
    29  H    7.575310   5.167456   6.675634   6.904711   4.173777
    30  C   10.143045   7.555459   8.988957   8.987569   6.349024
    31  H    9.096881   6.548902   7.570854   7.775461   5.163962
    32  H    9.281094   6.563171   7.789881   7.589689   5.179477
    33  C   11.019920   8.528498   9.852567  10.024405   7.324559
    34  H   11.261911   8.891341  10.284414  10.541725   7.804893
    35  H   11.643625   9.136329  10.292460  10.502224   7.840550
    36  H   10.383642   7.781061   9.386205   9.219466   6.669807
                   16         17         18         19         20
    16  H    0.000000
    17  H    1.765051   0.000000
    18  C    2.753366   2.754271   0.000000
    19  H    3.065784   2.506075   2.160229   0.000000
    20  H    2.507341   3.065781   2.160135   1.765070   0.000000
    21  C    4.175114   4.174306   1.529600   2.753160   2.754971
    22  H    2.526388   3.083748   1.096810   3.065771   2.505818
    23  H    3.079243   2.525432   1.096810   2.507588   3.065787
    24  C    5.169905   5.170378   2.526558   4.175137   4.175568
    25  H    4.707482   4.362231   2.160015   2.525676   3.084013
    26  H    4.366000   4.707638   2.160287   3.079644   2.526855
    27  C    6.554472   6.553449   3.886321   5.168768   5.170755
    28  H    5.049524   5.350379   2.751966   4.705761   4.361911
    29  H    5.347714   5.049700   2.752139   4.364327   4.707119
    30  C    7.634432   7.637653   5.029443   6.529413   6.526588
    31  H    6.901300   6.672079   4.171449   5.045013   5.344912
    32  H    6.685317   6.913819   4.182840   5.360662   5.062992
    33  C    8.697460   8.500437   6.025457   7.366079   7.593502
    34  H    9.042342   8.742319   6.434696   7.856596   8.190210
    35  H    9.382711   9.149173   6.659819   7.773859   8.048099
    36  H    7.705852   7.905921   5.290831   7.012394   6.787134
                   21         22         23         24         25
    21  C    0.000000
    22  H    2.160262   0.000000
    23  H    2.160093   1.765055   0.000000
    24  C    1.530060   2.753865   2.754724   0.000000
    25  H    1.096810   3.065731   2.505963   2.160632   0.000000
    26  H    1.096810   2.507335   3.065803   2.160452   1.765182
    27  C    2.525986   4.175291   4.174985   1.529970   2.753114
    28  H    2.159649   2.523137   3.080334   1.097450   3.065731
    29  H    2.160181   3.078506   2.524268   1.097440   2.507641
    30  C    3.860025   5.147228   5.152471   2.502934   4.150575
    31  H    2.748480   4.704950   4.363789   2.161753   2.519365
    32  H    2.762916   4.370779   4.714709   2.163667   3.091510
    33  C    4.857262   6.262482   5.986387   3.554190   4.919812
    34  H    5.443784   6.642415   6.227669   4.062901   5.517215
    35  H    5.359702   6.993856   6.678525   4.241312   5.262211
    36  H    4.280048   5.179486   5.472593   2.863847   4.796945
                   26         27         28         29         30
    26  H    0.000000
    27  C    2.753949   0.000000
    28  H    2.506530   2.164161   0.000000
    29  H    3.065976   2.162957   1.764112   0.000000
    30  C    4.144867   1.501750   2.735795   2.743764   0.000000
    31  H    3.072595   1.096900   3.069742   2.516387   2.149557
    32  H    2.536145   1.096570   2.510302   3.070134   2.121046
    33  C    5.253030   2.510508   3.946326   3.490136   1.338890
    34  H    5.982411   3.334828   4.387941   3.728403   2.121573
    35  H    5.657498   2.956754   4.752123   4.273788   2.111355
    36  H    4.460663   2.217862   2.656445   3.187936   1.088280
                   31         32         33         34         35
    31  H    0.000000
    32  H    1.761741   0.000000
    33  C    2.641807   3.202584   0.000000
    34  H    3.467145   4.149324   1.085550   0.000000
    35  H    2.786423   3.460915   1.085710   1.856157   0.000000
    36  H    3.106541   2.538400   2.095015   2.615063   2.917317
                   36
    36  H    0.000000
 Stoichiometry    C12H24
 Framework group  C1[X(C12H24)]
 Deg. of freedom   102
 Full point group                 C1      NOp   1
 Largest Abelian subgroup         C1      NOp   1
 Largest concise Abelian subgroup C1      NOp   1
                         Standard orientation:                         
 ---------------------------------------------------------------------
 Center     Atomic      Atomic             Coordinates (Angstroms)
 Number     Number       Type             X           Y           Z
 ---------------------------------------------------------------------
      1          6           0        6.772838   -0.425560   -0.072827
      2          6           0        5.523210    0.438249   -0.134377
      3          1           0        7.668406    0.195889   -0.171147
      4          1           0        6.780385   -1.162765   -0.882035
      5          1           0        6.833468   -0.960501    0.880319
      6          6           0        4.253986   -0.402550    0.000968
      7          1           0        5.509416    0.983274   -1.085406
      8          1           0        5.562513    1.185043    0.667154
      9          6           0        2.999221    0.469828   -0.063099
     10          1           0        4.274324   -0.947914    0.952412
     11          1           0        4.222175   -1.151325   -0.799909
     12          6           0        1.729118   -0.371484    0.073572
     13          1           0        2.978642    1.014225   -1.015056
     14          1           0        3.031370    1.219051    0.737304
     15          6           0        0.474186    0.500460    0.006668
     16          1           0        1.748952   -0.914363    1.026399
     17          1           0        1.697826   -1.121986   -0.725652
     18          6           0       -0.795714   -0.340860    0.145042
     19          1           0        0.453875    1.042295   -0.946744
     20          1           0        0.505792    1.251815    0.805077
     21          6           0       -2.050898    0.530514    0.075061
     22          1           0       -0.776161   -0.881044    1.099406
     23          1           0       -0.826375   -1.093620   -0.652081
     24          6           0       -3.321121   -0.310906    0.215159
     25          1           0       -2.070770    1.069576   -0.879932
     26          1           0       -2.019986    1.284056    0.871435
     27          6           0       -4.575773    0.561716    0.143140
     28          1           0       -3.298134   -0.851327    1.170048
     29          1           0       -3.349473   -1.066613   -0.580126
     30          6           0       -5.822302   -0.261912    0.294981
     31          1           0       -4.588688    1.111837   -0.805749
     32          1           0       -4.554946    1.309960    0.944490
     33          6           0       -6.769017   -0.371273   -0.645444
     34          1           0       -7.034840   -1.329949   -1.079838
     35          1           0       -7.301221    0.505341   -1.001915
     36          1           0       -5.952949   -0.788283    1.238494
 ---------------------------------------------------------------------
 Rotational constants (GHZ):      6.3324876      0.1582191      0.1569772
 Standard basis: def2SVP (5D, 7F)
 There are   300 symmetry adapted cartesian basis functions of A   symmetry.
 There are   288 symmetry adapted basis functions of A   symmetry.
   288 basis functions,   468 primitive gaussians,   300 cartesian basis functions
    48 alpha electrons       48 beta electrons
       nuclear repulsion energy       654.6541450854 Hartrees.
 NAtoms=   36 NActive=   36 NUniq=   36 SFac= 1.00D+00 NAtFMM=   60 NAOKFM=F Big=F
 Integral buffers will be    131072 words long.
 Raffenetti 2 integral format.
 Two-electron integral symmetry is turned on.
 One-electron integrals computed using PRISM.
   1 Symmetry operations used in ECPInt.
 ECPInt:  NShTT=   10440 NPrTT=   35208 LenC2=    8754 LenP2D=   21877.
 LDataN:  DoStor=T MaxTD1= 4 Len=   56
 NBasis=   288 RedAO= T EigKep=  7.65D-04  NBF=   288
 NBsUse=   288 1.00D-06 EigRej= -1.00D+00 NBFU=   288
 ExpMin= 1.22D-01 ExpMax= 1.24D+03 ExpMxC= 1.86D+02 IAcc=3 IRadAn=         7 AccDes= 0.00D+00
 Harris functional with IExCor= 1009 and IRadAn=       7 diagonalized for initial guess.
 HarFok:  IExCor= 1009 AccDes= 0.00D+00 IRadAn=         7 IDoV= 1 UseB2=F ITyADJ=14
 ICtDFT=  3500011 ScaDFX=  1.000000  1.000000  1.000000  1.000000
 FoFCou: FMM=F IPFlag=           0 FMFlag=      100000 FMFlg1=           0
         NFxFlg=           0 DoJE=T BraDBF=F KetDBF=T FulRan=T
         wScrn=  0.000000 ICntrl=     500 IOpCl=  0 I1Cent=   200000004 NGrid=           0
         NMat0=    1 NMatS0=      1 NMatT0=    0 NMatD0=    1 NMtDS0=    0 NMtDT0=    0
 Petite list used in FoFCou.
 Keep R1 ints in memory in canonical form, NReq=879895090.
 Requested convergence on RMS density matrix=1.00D-08 within 128 cycles.
 Requested convergence on MAX density matrix=1.00D-06.
 Requested convergence on             energy=1.00D-06.
 No special actions if energy rises.
 Integral accuracy reduced to 1.0D-05 until final iterations.
 Initial convergence to 1.0D-05 achieved.  Increase integral accuracy.
 SCF Done:  E(RM06) =  -470.905757509     A.U. after   13 cycles
            NFock= 13  Conv=0.71D-08     -V/T= 2.0124

 **********************************************************************

            Population analysis using the SCF density.

 **********************************************************************

 Orbital symmetries:
       Occupied  (A) (A) (A) (A) (A) (A) (A) (A) (A) (A) (A) (A)
                 (A) (A) (A) (A) (A) (A) (A) (A) (A) (A) (A) (A)
                 (A) (A) (A) (A) (A) (A) (A) (A) (A) (A) (A) (A)
                 (A) (A) (A) (A) (A) (A) (A) (A) (A) (A) (A) (A)
       Virtual   (A) (A) (A) (A) (A) (A) (A) (A) (A) (A) (A) (A)
                 (A) (A) (A) (A) (A) (A) (A) (A) (A) (A) (A) (A)
                 (A) (A) (A) (A) (A) (A) (A) (A) (A) (A) (A) (A)
                 (A) (A) (A) (A) (A) (A) (A) (A) (A) (A) (A) (A)
                 (A) (A) (A) (A) (A) (A) (A) (A) (A) (A) (A) (A)
                 (A) (A) (A) (A) (A) (A) (A) (A) (A) (A) (A) (A)
                 (A) (A) (A) (A) (A) (A) (A) (A) (A) (A) (A) (A)
                 (A) (A) (A) (A) (A) (A) (A) (A) (A) (A) (A) (A)
                 (A) (A) (A) (A) (A) (A) (A) (A) (A) (A) (A) (A)
                 (A) (A) (A) (A) (A) (A) (A) (A) (A) (A) (A) (A)
                 (A) (A) (A) (A) (A) (A) (A) (A) (A) (A) (A) (A)
                 (A) (A) (A) (A) (A) (A) (A) (A) (A) (A) (A) (A)
                 (A) (A) (A) (A) (A) (A) (A) (A) (A) (A) (A) (A)
                 (A) (A) (A) (A) (A) (A) (A) (A) (A) (A) (A) (A)
                 (A) (A) (A) (A) (A) (A) (A) (A) (A) (A) (A) (A)
                 (A) (A) (A) (A) (A) (A) (A) (A) (A) (A) (A) (A)
                 (A) (A) (A) (A) (A) (A) (A) (A) (A) (A) (A) (A)
                 (A) (A) (A) (A) (A) (A) (A) (A) (A) (A) (A) (A)
                 (A) (A) (A) (A) (A) (A) (A) (A) (A) (A) (A) (A)
                 (A) (A) (A) (A) (A) (A) (A) (A) (A) (A) (A) (A)
 The electronic state is 1-A.
 Alpha  occ. eigenvalues --  -10.25104 -10.24597 -10.24510 -10.24147 -10.23949
 Alpha  occ. eigenvalues --  -10.23827 -10.23773 -10.23749 -10.23697 -10.23676
 Alpha  occ. eigenvalues --  -10.23344 -10.23227  -0.82339  -0.81119  -0.79116
 Alpha  occ. eigenvalues --   -0.76432  -0.73152  -0.69294  -0.64962  -0.60682
 Alpha  occ. eigenvalues --   -0.58515  -0.57766  -0.57557  -0.55176  -0.49808
 Alpha  occ. eigenvalues --   -0.48513  -0.46633  -0.45196  -0.44685  -0.43921
 Alpha  occ. eigenvalues --   -0.42984  -0.42871  -0.41330  -0.40326  -0.39383
 Alpha  occ. eigenvalues --   -0.38763  -0.37512  -0.36287  -0.35416  -0.34815
 Alpha  occ. eigenvalues --   -0.34366  -0.34169  -0.33658  -0.33455  -0.33146
 Alpha  occ. eigenvalues --   -0.32969  -0.30443  -0.20898
 Alpha virt. eigenvalues --   -0.03431   0.06271   0.07034   0.07945   0.08248
 Alpha virt. eigenvalues --    0.08730   0.09356   0.09821   0.10232   0.11049
 Alpha virt. eigenvalues --    0.11494   0.12629   0.13326   0.14232   0.14637
 Alpha virt. eigenvalues --    0.15334   0.15795   0.16165   0.16170   0.16793
 Alpha virt. eigenvalues --    0.17121   0.18225   0.18461   0.19474   0.19655
 Alpha virt. eigenvalues --    0.20422   0.20696   0.22609   0.23122   0.23498
 Alpha virt. eigenvalues --    0.25989   0.26536   0.28153   0.32267   0.33153
 Alpha virt. eigenvalues --    0.34626   0.38545   0.40497   0.41445   0.42332
 Alpha virt. eigenvalues --    0.42727   0.43310   0.43714   0.43808   0.44514
 Alpha virt. eigenvalues --    0.46992   0.48324   0.48859   0.49934   0.50531
 Alpha virt. eigenvalues --    0.51567   0.52255   0.54654   0.54748   0.57250
 Alpha virt. eigenvalues --    0.58655   0.61132   0.61200   0.61842   0.61961
 Alpha virt. eigenvalues --    0.62225   0.62608   0.62875   0.63089   0.63360
 Alpha virt. eigenvalues --    0.64046   0.64369   0.64602   0.64951   0.65554
 Alpha virt. eigenvalues --    0.66067   0.66138   0.66269   0.66718   0.67003
 Alpha virt. eigenvalues --    0.67087   0.67298   0.67949   0.68719   0.68898
 Alpha virt. eigenvalues --    0.69289   0.70013   0.70185   0.70828   0.71380
 Alpha virt. eigenvalues --    0.71613   0.71962   0.72080   0.72687   0.73001
 Alpha virt. eigenvalues --    0.75243   0.79595   0.82110   0.86131   0.86619
 Alpha virt. eigenvalues --    0.91402   0.94603   0.98328   0.98959   1.00566
 Alpha virt. eigenvalues --    1.01413   1.01929   1.02423   1.02912   1.03827
 Alpha virt. eigenvalues --    1.05473   1.07931   1.09378   1.17906   1.19180
 Alpha virt. eigenvalues --    1.22190   1.23456   1.26879   1.31442   1.31730
 Alpha virt. eigenvalues --    1.32782   1.33618   1.34531   1.35792   1.35988
 Alpha virt. eigenvalues --    1.37055   1.37701   1.37919   1.41128   1.45525
 Alpha virt. eigenvalues --    1.51672   1.52627   1.56752   1.58664   1.61849
 Alpha virt. eigenvalues --    1.65382   1.65891   1.66384   1.66796   1.69347
 Alpha virt. eigenvalues --    1.70858   1.71493   1.73048   1.74000   1.74011
 Alpha virt. eigenvalues --    1.74676   1.75201   1.76497   1.76874   1.77672
 Alpha virt. eigenvalues --    1.78187   1.79043   1.79493   1.79822   1.80203
 Alpha virt. eigenvalues --    1.80362   1.81180   1.81438   1.82076   1.82493
 Alpha virt. eigenvalues --    1.83767   1.83896   1.84357   1.85494   1.85976
 Alpha virt. eigenvalues --    1.86865   1.88226   1.89179   1.90628   1.90936
 Alpha virt. eigenvalues --    1.91463   1.92244   1.92833   1.93152   1.94499
 Alpha virt. eigenvalues --    1.96301   1.99007   1.99343   2.00720   2.03920
 Alpha virt. eigenvalues --    2.05886   2.07098   2.09637   2.10086   2.12500
 Alpha virt. eigenvalues --    2.14037   2.15789   2.19039   2.20760   2.23957
 Alpha virt. eigenvalues --    2.27344   2.30442   2.31456   2.34834   2.36001
 Alpha virt. eigenvalues --    2.37330   2.39634   2.40591   2.41310   2.41701
 Alpha virt. eigenvalues --    2.42320   2.43263   2.44402   2.46313   2.46671
 Alpha virt. eigenvalues --    2.48802   2.50818   2.51187   2.52754   2.55511
 Alpha virt. eigenvalues --    2.56702   2.57232   2.57456   2.59098   2.59704
 Alpha virt. eigenvalues --    2.60495   2.61555   2.63628   2.65212   2.70871
 Alpha virt. eigenvalues --    2.74799   2.76530   2.79024   2.82144   2.82592
 Alpha virt. eigenvalues --    2.83692   2.84314   2.85401   2.87042   2.88360
 Alpha virt. eigenvalues --    2.90600   2.91166   2.92756   2.93093   2.95678
 Alpha virt. eigenvalues --    2.96691   2.97517   2.99605   3.00000   3.01001
 Alpha virt. eigenvalues --    3.03276   3.04419   3.05103   3.07305   3.10348
          Condensed to atoms (all electrons):
               1          2          3          4          5          6
     1  C    4.571213   0.421858   0.378010   0.394094   0.394052  -0.058848
     2  C    0.421858   4.673804  -0.014020  -0.023348  -0.023344   0.398672
     3  H    0.378010  -0.014020   0.656286  -0.024821  -0.024826   0.008286
     4  H    0.394094  -0.023348  -0.024821   0.653107  -0.027907  -0.008673
     5  H    0.394052  -0.023344  -0.024826  -0.027907   0.653210  -0.008673
     6  C   -0.058848   0.398672   0.008286  -0.008673  -0.008673   4.751863
     7  H   -0.023821   0.375285  -0.006691  -0.010175   0.008801  -0.022832
     8  H   -0.023792   0.375211  -0.006704   0.008800  -0.010164  -0.022773
     9  C    0.009392  -0.046187  -0.000555   0.000467   0.000470   0.364380
    10  H   -0.004389  -0.027277  -0.000047  -0.001941   0.007551   0.374708
    11  H   -0.004372  -0.027335  -0.000045   0.007554  -0.001947   0.374842
    12  C   -0.000510   0.008370   0.000016  -0.000008  -0.000008  -0.043108
    13  H    0.000293  -0.006629   0.000008  -0.000053   0.000024  -0.022303
    14  H    0.000298  -0.006618   0.000008   0.000024  -0.000053  -0.022283
    15  C    0.000009  -0.000440   0.000000   0.000000   0.000000   0.008165
    16  H    0.000007   0.000318   0.000000   0.000004  -0.000010  -0.007030
    17  H    0.000007   0.000325   0.000000  -0.000010   0.000004  -0.007008
    18  C    0.000000   0.000008   0.000000   0.000000   0.000000  -0.000459
    19  H    0.000000   0.000003   0.000000   0.000000   0.000000   0.000375
    20  H    0.000000   0.000003   0.000000   0.000000   0.000000   0.000384
    21  C    0.000000   0.000000   0.000000   0.000000   0.000000   0.000008
    22  H    0.000000   0.000000   0.000000   0.000000   0.000000   0.000003
    23  H    0.000000   0.000000   0.000000   0.000000   0.000000   0.000003
    24  C    0.000000   0.000000   0.000000   0.000000   0.000000   0.000000
    25  H    0.000000   0.000000   0.000000   0.000000   0.000000   0.000000
    26  H    0.000000   0.000000   0.000000   0.000000   0.000000   0.000000
    27  C    0.000000   0.000000   0.000000   0.000000   0.000000   0.000000
    28  H    0.000000   0.000000   0.000000   0.000000   0.000000   0.000000
    29  H    0.000000   0.000000   0.000000   0.000000   0.000000   0.000000
    30  C    0.000000   0.000000   0.000000   0.000000   0.000000   0.000000
    31  H    0.000000   0.000000   0.000000   0.000000   0.000000   0.000000
    32  H    0.000000   0.000000   0.000000   0.000000   0.000000   0.000000
    33  C    0.000000   0.000000   0.000000   0.000000   0.000000   0.000000
    34  H    0.000000   0.000000   0.000000   0.000000   0.000000   0.000000
    35  H    0.000000   0.000000   0.000000   0.000000   0.000000   0.000000
    36  H    0.000000   0.000000   0.000000   0.000000   0.000000   0.000000
               7          8          9         10         11         12
     1  C   -0.023821  -0.023792   0.009392  -0.004389  -0.004372  -0.000510
     2  C    0.375285   0.375211  -0.046187  -0.027277  -0.027335   0.008370
     3  H   -0.006691  -0.006704  -0.000555  -0.000047  -0.000045   0.000016
     4  H   -0.010175   0.008800   0.000467  -0.001941   0.007554  -0.000008
     5  H    0.008801  -0.010164   0.000470   0.007551  -0.001947  -0.000008
     6  C   -0.022832  -0.022773   0.364380   0.374708   0.374842  -0.043108
     7  H    0.690878  -0.034868  -0.007357   0.009500  -0.011834   0.000362
     8  H   -0.034868   0.690966  -0.007373  -0.011874   0.009499   0.000358
     9  C   -0.007357  -0.007373   4.749405  -0.020968  -0.020982   0.364401
    10  H    0.009500  -0.011874  -0.020968   0.696176  -0.037147  -0.007322
    11  H   -0.011834   0.009499  -0.020982  -0.037147   0.695984  -0.007340
    12  C    0.000362   0.000358   0.364401  -0.007322  -0.007340   4.746901
    13  H    0.007899  -0.002030   0.372341   0.009436  -0.011947  -0.021280
    14  H   -0.002038   0.007898   0.372212  -0.011923   0.009437  -0.021200
    15  C    0.000004   0.000004  -0.044241   0.000436   0.000431   0.367413
    16  H    0.000015  -0.000040  -0.021576   0.007730  -0.002008   0.371791
    17  H   -0.000040   0.000015  -0.021654  -0.002019   0.007738   0.372009
    18  C    0.000000   0.000000   0.008398   0.000001   0.000001  -0.045549
    19  H   -0.000012   0.000005  -0.007082   0.000014  -0.000040  -0.021245
    20  H    0.000005  -0.000012  -0.007076  -0.000040   0.000014  -0.021192
    21  C    0.000000   0.000000  -0.000459   0.000000   0.000000   0.008420
    22  H    0.000000   0.000000   0.000386  -0.000012   0.000005  -0.007133
    23  H    0.000000   0.000000   0.000390   0.000005  -0.000012  -0.007077
    24  C    0.000000   0.000000   0.000008   0.000000   0.000000  -0.000449
    25  H    0.000000   0.000000   0.000002   0.000000   0.000000   0.000387
    26  H    0.000000   0.000000   0.000002   0.000000   0.000000   0.000387
    27  C    0.000000   0.000000   0.000000   0.000000   0.000000   0.000007
    28  H    0.000000   0.000000   0.000000   0.000000   0.000000   0.000000
    29  H    0.000000   0.000000   0.000000   0.000000   0.000000  -0.000003
    30  C    0.000000   0.000000   0.000000   0.000000   0.000000   0.000000
    31  H    0.000000   0.000000   0.000000   0.000000   0.000000   0.000000
    32  H    0.000000   0.000000   0.000000   0.000000   0.000000   0.000000
    33  C    0.000000   0.000000   0.000000   0.000000   0.000000   0.000000
    34  H    0.000000   0.000000   0.000000   0.000000   0.000000   0.000000
    35  H    0.000000   0.000000   0.000000   0.000000   0.000000   0.000000
    36  H    0.000000   0.000000   0.000000   0.000000   0.000000   0.000000
              13         14         15         16         17         18
     1  C    0.000293   0.000298   0.000009   0.000007   0.000007   0.000000
     2  C   -0.006629  -0.006618  -0.000440   0.000318   0.000325   0.000008
     3  H    0.000008   0.000008   0.000000   0.000000   0.000000   0.000000
     4  H   -0.000053   0.000024   0.000000   0.000004  -0.000010   0.000000
     5  H    0.000024  -0.000053   0.000000  -0.000010   0.000004   0.000000
     6  C   -0.022303  -0.022283   0.008165  -0.007030  -0.007008  -0.000459
     7  H    0.007899  -0.002038   0.000004   0.000015  -0.000040   0.000000
     8  H   -0.002030   0.007898   0.000004  -0.000040   0.000015   0.000000
     9  C    0.372341   0.372212  -0.044241  -0.021576  -0.021654   0.008398
    10  H    0.009436  -0.011923   0.000436   0.007730  -0.002019   0.000001
    11  H   -0.011947   0.009437   0.000431  -0.002008   0.007738   0.000001
    12  C   -0.021280  -0.021200   0.367413   0.371791   0.372009  -0.045549
    13  H    0.695663  -0.036297  -0.007221   0.009370  -0.011850   0.000401
    14  H   -0.036297   0.695863  -0.007245  -0.011919   0.009367   0.000394
    15  C   -0.007221  -0.007245   4.741441  -0.021132  -0.021184   0.369608
    16  H    0.009370  -0.011919  -0.021132   0.695713  -0.036156  -0.007231
    17  H   -0.011850   0.009367  -0.021184  -0.036156   0.695307  -0.007222
    18  C    0.000401   0.000394   0.369608  -0.007231  -0.007222   4.739717
    19  H    0.007774  -0.001991   0.372064   0.009351  -0.011900  -0.021473
    20  H   -0.002004   0.007768   0.371793  -0.011879   0.009352  -0.021552
    21  C    0.000003   0.000003  -0.044803   0.000398   0.000392   0.371447
    22  H    0.000014  -0.000040  -0.020871   0.007773  -0.001990   0.372151
    23  H   -0.000040   0.000014  -0.020785  -0.002004   0.007763   0.371388
    24  C    0.000000   0.000000   0.008219   0.000003   0.000002  -0.045843
    25  H   -0.000012   0.000005  -0.007204   0.000014  -0.000040  -0.020307
    26  H    0.000005  -0.000012  -0.007008  -0.000039   0.000014  -0.021505
    27  C    0.000000   0.000000  -0.000433   0.000000   0.000000   0.008256
    28  H    0.000000   0.000000   0.000451  -0.000012   0.000005  -0.007053
    29  H    0.000000   0.000000   0.000428   0.000006  -0.000012  -0.006947
    30  C    0.000000   0.000000   0.000007   0.000000   0.000000  -0.000365
    31  H    0.000000   0.000000   0.000013   0.000000   0.000000   0.000327
    32  H    0.000000   0.000000  -0.000007   0.000000   0.000000   0.000565
    33  C    0.000000   0.000000   0.000000   0.000000   0.000000   0.000005
    34  H    0.000000   0.000000   0.000000   0.000000   0.000000  -0.000001
    35  H    0.000000   0.000000   0.000000   0.000000   0.000000   0.000000
    36  H    0.000000   0.000000   0.000001   0.000000   0.000000  -0.000006
              19         20         21         22         23         24
     1  C    0.000000   0.000000   0.000000   0.000000   0.000000   0.000000
     2  C    0.000003   0.000003   0.000000   0.000000   0.000000   0.000000
     3  H    0.000000   0.000000   0.000000   0.000000   0.000000   0.000000
     4  H    0.000000   0.000000   0.000000   0.000000   0.000000   0.000000
     5  H    0.000000   0.000000   0.000000   0.000000   0.000000   0.000000
     6  C    0.000375   0.000384   0.000008   0.000003   0.000003   0.000000
     7  H   -0.000012   0.000005   0.000000   0.000000   0.000000   0.000000
     8  H    0.000005  -0.000012   0.000000   0.000000   0.000000   0.000000
     9  C   -0.007082  -0.007076  -0.000459   0.000386   0.000390   0.000008
    10  H    0.000014  -0.000040   0.000000  -0.000012   0.000005   0.000000
    11  H   -0.000040   0.000014   0.000000   0.000005  -0.000012   0.000000
    12  C   -0.021245  -0.021192   0.008420  -0.007133  -0.007077  -0.000449
    13  H    0.007774  -0.002004   0.000003   0.000014  -0.000040   0.000000
    14  H   -0.001991   0.007768   0.000003  -0.000040   0.000014   0.000000
    15  C    0.372064   0.371793  -0.044803  -0.020871  -0.020785   0.008219
    16  H    0.009351  -0.011879   0.000398   0.007773  -0.002004   0.000003
    17  H   -0.011900   0.009352   0.000392  -0.001990   0.007763   0.000002
    18  C   -0.021473  -0.021552   0.371447   0.372151   0.371388  -0.045843
    19  H    0.694710  -0.036077  -0.007209   0.009331  -0.011847   0.000395
    20  H   -0.036077   0.695258  -0.007110  -0.011888   0.009344   0.000388
    21  C   -0.007209  -0.007110   4.734121  -0.022158  -0.021489   0.373218
    22  H    0.009331  -0.011888  -0.022158   0.693999  -0.035884  -0.006759
    23  H   -0.011847   0.009344  -0.021489  -0.035884   0.693639  -0.006540
    24  C    0.000395   0.000388   0.373218  -0.006759  -0.006540   4.760068
    25  H    0.007739  -0.001982   0.370986   0.009297  -0.011809  -0.020387
    26  H   -0.001985   0.007710   0.373184  -0.011781   0.009272  -0.023685
    27  C    0.000002   0.000003  -0.047447   0.000302   0.000394   0.422412
    28  H    0.000012  -0.000043  -0.018573   0.007649  -0.002034   0.370589
    29  H   -0.000032   0.000006  -0.019238  -0.002071   0.007074   0.361311
    30  C    0.000000   0.000000   0.008503   0.000002  -0.000020  -0.060181
    31  H   -0.000012   0.000004  -0.003755   0.000013  -0.000049  -0.031232
    32  H    0.000006  -0.000015  -0.010019  -0.000061  -0.000008  -0.022552
    33  C    0.000000   0.000000   0.000131   0.000000  -0.000008  -0.007265
    34  H    0.000000   0.000000  -0.000008   0.000000   0.000001   0.000145
    35  H    0.000000   0.000000   0.000030   0.000000   0.000000  -0.000345
    36  H    0.000000   0.000000   0.000694  -0.000009  -0.000001  -0.011226
              25         26         27         28         29         30
     1  C    0.000000   0.000000   0.000000   0.000000   0.000000   0.000000
     2  C    0.000000   0.000000   0.000000   0.000000   0.000000   0.000000
     3  H    0.000000   0.000000   0.000000   0.000000   0.000000   0.000000
     4  H    0.000000   0.000000   0.000000   0.000000   0.000000   0.000000
     5  H    0.000000   0.000000   0.000000   0.000000   0.000000   0.000000
     6  C    0.000000   0.000000   0.000000   0.000000   0.000000   0.000000
     7  H    0.000000   0.000000   0.000000   0.000000   0.000000   0.000000
     8  H    0.000000   0.000000   0.000000   0.000000   0.000000   0.000000
     9  C    0.000002   0.000002   0.000000   0.000000   0.000000   0.000000
    10  H    0.000000   0.000000   0.000000   0.000000   0.000000   0.000000
    11  H    0.000000   0.000000   0.000000   0.000000   0.000000   0.000000
    12  C    0.000387   0.000387   0.000007   0.000000  -0.000003   0.000000
    13  H   -0.000012   0.000005   0.000000   0.000000   0.000000   0.000000
    14  H    0.000005  -0.000012   0.000000   0.000000   0.000000   0.000000
    15  C   -0.007204  -0.007008  -0.000433   0.000451   0.000428   0.000007
    16  H    0.000014  -0.000039   0.000000  -0.000012   0.000006   0.000000
    17  H   -0.000040   0.000014   0.000000   0.000005  -0.000012   0.000000
    18  C   -0.020307  -0.021505   0.008256  -0.007053  -0.006947  -0.000365
    19  H    0.007739  -0.001985   0.000002   0.000012  -0.000032   0.000000
    20  H   -0.001982   0.007710   0.000003  -0.000043   0.000006   0.000000
    21  C    0.370986   0.373184  -0.047447  -0.018573  -0.019238   0.008503
    22  H    0.009297  -0.011781   0.000302   0.007649  -0.002071   0.000002
    23  H   -0.011809   0.009272   0.000394  -0.002034   0.007074  -0.000020
    24  C   -0.020387  -0.023685   0.422412   0.370589   0.361311  -0.060181
    25  H    0.691084  -0.035878  -0.006838   0.009202  -0.012156   0.000144
    26  H   -0.035878   0.691758  -0.005880  -0.011901   0.009417   0.000513
    27  C   -0.006838  -0.005880   4.730042  -0.026690  -0.038690   0.369701
    28  H    0.009202  -0.011901  -0.026690   0.688225  -0.035416  -0.004817
    29  H   -0.012156   0.009417  -0.038690  -0.035416   0.693361   0.011384
    30  C    0.000144   0.000513   0.369701  -0.004817   0.011384   4.871861
    31  H    0.007311  -0.001957   0.373016   0.009280  -0.009848  -0.026997
    32  H   -0.002206   0.008695   0.326566  -0.010709   0.011380  -0.020097
    33  C    0.000019  -0.000009  -0.076741   0.000153   0.004131   0.628198
    34  H    0.000005  -0.000001   0.012082   0.000020  -0.000836  -0.028351
    35  H   -0.000013   0.000004  -0.018743   0.000015   0.000320  -0.038171
    36  H    0.000003  -0.000015  -0.058213   0.006698   0.000233   0.395854
              31         32         33         34         35         36
     1  C    0.000000   0.000000   0.000000   0.000000   0.000000   0.000000
     2  C    0.000000   0.000000   0.000000   0.000000   0.000000   0.000000
     3  H    0.000000   0.000000   0.000000   0.000000   0.000000   0.000000
     4  H    0.000000   0.000000   0.000000   0.000000   0.000000   0.000000
     5  H    0.000000   0.000000   0.000000   0.000000   0.000000   0.000000
     6  C    0.000000   0.000000   0.000000   0.000000   0.000000   0.000000
     7  H    0.000000   0.000000   0.000000   0.000000   0.000000   0.000000
     8  H    0.000000   0.000000   0.000000   0.000000   0.000000   0.000000
     9  C    0.000000   0.000000   0.000000   0.000000   0.000000   0.000000
    10  H    0.000000   0.000000   0.000000   0.000000   0.000000   0.000000
    11  H    0.000000   0.000000   0.000000   0.000000   0.000000   0.000000
    12  C    0.000000   0.000000   0.000000   0.000000   0.000000   0.000000
    13  H    0.000000   0.000000   0.000000   0.000000   0.000000   0.000000
    14  H    0.000000   0.000000   0.000000   0.000000   0.000000   0.000000
    15  C    0.000013  -0.000007   0.000000   0.000000   0.000000   0.000001
    16  H    0.000000   0.000000   0.000000   0.000000   0.000000   0.000000
    17  H    0.000000   0.000000   0.000000   0.000000   0.000000   0.000000
    18  C    0.000327   0.000565   0.000005  -0.000001   0.000000  -0.000006
    19  H   -0.000012   0.000006   0.000000   0.000000   0.000000   0.000000
    20  H    0.000004  -0.000015   0.000000   0.000000   0.000000   0.000000
    21  C   -0.003755  -0.010019   0.000131  -0.000008   0.000030   0.000694
    22  H    0.000013  -0.000061   0.000000   0.000000   0.000000  -0.000009
    23  H   -0.000049  -0.000008  -0.000008   0.000001   0.000000  -0.000001
    24  C   -0.031232  -0.022552  -0.007265   0.000145  -0.000345  -0.011226
    25  H    0.007311  -0.002206   0.000019   0.000005  -0.000013   0.000003
    26  H   -0.001957   0.008695  -0.000009  -0.000001   0.000004  -0.000015
    27  C    0.373016   0.326566  -0.076741   0.012082  -0.018743  -0.058213
    28  H    0.009280  -0.010709   0.000153   0.000020   0.000015   0.006698
    29  H   -0.009848   0.011380   0.004131  -0.000836   0.000320   0.000233
    30  C   -0.026997  -0.020097   0.628198  -0.028351  -0.038171   0.395854
    31  H    0.681174  -0.027139  -0.003282  -0.000463   0.004580   0.008985
    32  H   -0.027139   0.712092   0.008364  -0.000734   0.001920   0.000405
    33  C   -0.003282   0.008364   4.856978   0.384182   0.394570  -0.050141
    34  H   -0.000463  -0.000734   0.384182   0.633042  -0.049068  -0.011114
    35  H    0.004580   0.001920   0.394570  -0.049068   0.635435   0.010319
    36  H    0.008985   0.000405  -0.050141  -0.011114   0.010319   0.663250
 Mulliken charges:
               1
     1  C   -0.053502
     2  C   -0.078656
     3  H    0.035095
     4  H    0.032886
     5  H    0.032819
     6  C   -0.057699
     7  H    0.026918
     8  H    0.026873
     9  C   -0.036746
    10  H    0.019401
    11  H    0.019505
    12  C   -0.037397
    13  H    0.018435
    14  H    0.018328
    15  C   -0.037912
    16  H    0.018544
    17  H    0.018784
    18  C   -0.037153
    19  H    0.019124
    20  H    0.018839
    21  C   -0.039269
    22  H    0.019733
    23  H    0.020319
    24  C   -0.060293
    25  H    0.022633
    26  H    0.020694
    27  C    0.036891
    28  H    0.024949
    29  H    0.026199
    30  C   -0.107169
    31  H    0.020031
    32  H    0.023553
    33  C   -0.139285
    34  H    0.061101
    35  H    0.059148
    36  H    0.044282
 Sum of Mulliken charges =   0.00000
 Mulliken charges with hydrogens summed into heavy atoms:
               1
     1  C    0.047298
     2  C   -0.024865
     6  C   -0.018794
     9  C    0.000017
    12  C   -0.000070
    15  C    0.000051
    18  C    0.002899
    21  C    0.004058
    24  C   -0.009145
    27  C    0.080475
    30  C   -0.062887
    33  C   -0.019037
 Electronic spatial extent (au):  <R**2>=           6922.2715
 Charge=              0.0000 electrons
 Dipole moment (field-independent basis, Debye):
    X=              0.6545    Y=              0.1571    Z=              0.2111  Tot=              0.7054
 Quadrupole moment (field-independent basis, Debye-Ang):
   XX=            -87.2940   YY=            -80.7098   ZZ=            -78.6388
   XY=             -0.4422   XZ=             -0.7430   YZ=              0.1986
 Traceless Quadrupole moment (field-independent basis, Debye-Ang):
   XX=             -5.0798   YY=              1.5044   ZZ=              3.5754
   XY=             -0.4422   XZ=             -0.7430   YZ=              0.1986
 Octapole moment (field-independent basis, Debye-Ang**2):
  XXX=             45.1052  YYY=             -0.1367  ZZZ=              2.0858  XYY=             -0.6350
  XXY=              9.7586  XXZ=              0.2686  XZZ=              1.9059  YZZ=             -0.7560
  YYZ=             -0.8864  XYZ=              0.1389
 Hexadecapole moment (field-independent basis, Debye-Ang**3):
 XXXX=          -9719.8225 YYYY=           -280.9589 ZZZZ=           -190.9686 XXXY=            -15.5159
 XXXZ=             27.7151 YYYX=              1.3647 YYYZ=              3.5253 ZZZX=            -11.7171
 ZZZY=             -0.7506 XXYY=          -1580.8612 XXZZ=          -1545.6889 YYZZ=            -72.7030
 XXYZ=              3.3312 YYXZ=              5.4065 ZZXY=              2.9502
 N-N= 6.546541450854D+02 E-N=-2.395542241729D+03  KE= 4.651189683439D+02
   1 Symmetry operations used in ECPInt.
 ECPInt:  NShTT=   10440 NPrTT=   35208 LenC2=    8754 LenP2D=   21877.
 LDataN:  DoStor=T MaxTD1= 5 Len=  102
 Calling FoFJK, ICntrl=      2127 FMM=F ISym2X=0 I1Cent= 0 IOpClX= 0 NMat=1 NMatS=1 NMatT=0.
 ***** Axes restored to original set *****
 -------------------------------------------------------------------
 Center     Atomic                   Forces (Hartrees/Bohr)
 Number     Number              X              Y              Z
 -------------------------------------------------------------------
      1        6           0.005890790    0.000006397    0.008758107
      2        6          -0.015533714   -0.000015935   -0.013111488
      3        1           0.003359352   -0.000001090   -0.004679796
      4        1          -0.002696418    0.003583565   -0.002779249
      5        1          -0.002698190   -0.003590631   -0.002780337
      6        6           0.021436064    0.000037226    0.014419743
      7        1           0.003035283    0.003845174    0.004287788
      8        1           0.003048034   -0.003839482    0.004285023
      9        6          -0.021468017   -0.000059518   -0.014558055
     10        1          -0.003899759   -0.004382515   -0.002727210
     11        1          -0.003905173    0.004367527   -0.002735132
     12        6           0.021384447    0.000097466    0.014585788
     13        1           0.003870622    0.004295036    0.002624792
     14        1           0.003900213   -0.004274550    0.002626668
     15        6          -0.021319749   -0.000129992   -0.014181653
     16        1          -0.003896035   -0.004313592   -0.002620662
     17        1          -0.003909197    0.004273500   -0.002641820
     18        6           0.020046051    0.000311015    0.014611760
     19        1           0.003859796    0.004297081    0.002625439
     20        1           0.003917870   -0.004256095    0.002642282
     21        6          -0.019740384   -0.000235722   -0.011577937
     22        1          -0.003842596   -0.004297273   -0.002651086
     23        1          -0.003871243    0.004206338   -0.002696960
     24        6           0.012748636   -0.000070337    0.010332845
     25        1           0.003865164    0.004210454    0.002587823
     26        1           0.003880975   -0.004091116    0.002679464
     27        6          -0.002085485   -0.019723200    0.024022634
     28        1          -0.003634363   -0.003702122   -0.002067445
     29        1          -0.004016273    0.003784207   -0.001710941
     30        6           0.017142359   -0.002685714   -0.010173752
     31        1           0.000983703    0.004297876    0.002305403
     32        1           0.011174006   -0.007345094   -0.003721393
     33        6          -0.006735224    0.009247581    0.007627407
     34        1          -0.029237627   -0.017983002    0.017057180
     35        1           0.023824458    0.029862933   -0.007139481
     36        1          -0.014878375    0.004273603   -0.033525752
 -------------------------------------------------------------------
 Cartesian Forces:  Max     0.033525752 RMS     0.010295100
 -----------------------------------------------------------------------------------------------
                       Internal Coordinate Forces (Hartree/Bohr or radian)
  Cent   Atom   N1       Length/X         N2         Alpha/Y        N3         Beta/Z          J
 -----------------------------------------------------------------------------------------------
      1  C 
      2  C        1   0.001481(     1)
      3  H        1   0.004772(     2)      2   0.006674(    36)
      4  H        1   0.005150(     3)      2   0.002069(    37)      3  -0.001089(    70)     0
      5  H        1   0.005157(     4)      2   0.002065(    38)      3   0.001084(    71)     0
      6  C        2  -0.003000(     5)      1   0.010391(    39)      3  -0.000004(    72)     0
      7  H        2   0.006002(     6)      1   0.005086(    40)      3  -0.001127(    73)     0
      8  H        2   0.006003(     7)      1   0.005079(    41)      3   0.001147(    74)     0
      9  C        6  -0.002960(     8)      2   0.011544(    42)      1  -0.000047(    75)     0
     10  H        6   0.006350(     9)      2   0.001109(    43)      1  -0.002174(    76)     0
     11  H        6   0.006347(    10)      2   0.001109(    44)      1   0.002174(    77)     0
     12  C        9  -0.002934(    11)      6   0.011636(    45)      2  -0.000018(    78)     0
     13  H        9   0.006230(    12)      6   0.001219(    46)      2  -0.002100(    79)     0
     14  H        9   0.006234(    13)      6   0.001198(    47)      2   0.002127(    80)     0
     15  C       12  -0.002976(    14)      9   0.011526(    48)      6  -0.000050(    81)     0
     16  H       12   0.006254(    15)      9   0.001267(    49)      6  -0.002106(    82)     0
     17  H       12   0.006245(    16)      9   0.001260(    50)      6   0.002102(    83)     0
     18  C       15  -0.003051(    17)     12   0.011323(    51)      9  -0.000042(    84)     0
     19  H       15   0.006224(    18)     12   0.001243(    52)      9  -0.002106(    85)     0
     20  H       15   0.006236(    19)     12   0.001212(    53)      9   0.002149(    86)     0
     21  C       18  -0.003322(    20)     15   0.010549(    54)     12  -0.000092(    87)     0
     22  H       18   0.006222(    21)     15   0.001169(    55)     12  -0.002169(    88)     0
     23  H       18   0.006194(    22)     15   0.001166(    56)     12   0.002200(    89)     0
     24  C       21  -0.003817(    23)     18   0.008825(    57)     15  -0.000017(    90)     0
     25  H       21   0.006140(    24)     18   0.001240(    58)     15  -0.002231(    91)     0
     26  H       21   0.006102(    25)     18   0.001374(    59)     15   0.002230(    92)     0
     27  C       24  -0.003547(    26)     21   0.006353(    60)     18   0.000659(    93)     0
     28  H       24   0.005445(    27)     21   0.001812(    61)     18  -0.001720(    94)     0
     29  H       24   0.005597(    28)     21   0.002706(    62)     18   0.001159(    95)     0
     30  C       27  -0.000688(    29)     24  -0.016601(    63)     21  -0.014797(    96)     0
     31  H       27   0.004697(    30)     24   0.001663(    64)     21   0.002792(    97)     0
     32  H       27   0.010062(    31)     24  -0.015728(    65)     21   0.011334(    98)     0
     33  C       30   0.030011(    32)     27   0.002661(    66)     24   0.070821(    99)     0
     34  H       33   0.009883(    33)     30   0.006626(    67)     27   0.064349(   100)     0
     35  H       33   0.011079(    34)     30   0.006536(    68)     27   0.065442(   101)     0
     36  H       30   0.011962(    35)     27  -0.009033(    69)     24  -0.063560(   102)     0
 -----------------------------------------------------------------------------------------------
 Internal  Forces:  Max     0.070820864 RMS     0.014602217

 GradGradGradGradGradGradGradGradGradGradGradGradGradGradGradGradGradGrad
 Berny optimization.
 Search for a local minimum.
 Step number   1 out of a maximum of  200
 All quantities printed in internal units (Hartrees-Bohrs-Radians)
 Second derivative matrix not updated -- first step.
 ITU=  0
     Eigenvalues ---    0.01015   0.01016   0.01028   0.01028   0.01028
     Eigenvalues ---    0.01031   0.01038   0.01072   0.01312   0.01976
     Eigenvalues ---    0.08427   0.13370   0.15083   0.15094   0.15113
     Eigenvalues ---    0.15114   0.15115   0.15120   0.15129   0.15296
     Eigenvalues ---    0.15820   0.16000   0.17236   0.17288   0.17292
     Eigenvalues ---    0.17292   0.17293   0.17293   0.17305   0.17324
     Eigenvalues ---    0.17542   0.19881   0.20946   0.23861   0.29418
     Eigenvalues ---    0.29426   0.29460   0.29461   0.29462   0.29462
     Eigenvalues ---    0.29463   0.29566   0.30331   0.32194   0.33834
     Eigenvalues ---    0.33966   0.33967   0.34027   0.34033   0.34033
     Eigenvalues ---    0.34036   0.34036   0.34037   0.34037   0.34037
     Eigenvalues ---    0.34037   0.34037   0.34037   0.34037   0.34037
     Eigenvalues ---    0.34064   0.34104   0.34104   0.34276   0.34277
     Eigenvalues ---    0.34299   0.35012   0.35313   0.35332   0.36582
     Eigenvalues ---    0.36627   0.36659   0.36681   0.36682   0.36682
     Eigenvalues ---    0.36686   0.36693   0.37162   0.39241   0.39324
     Eigenvalues ---    0.39326   0.39326   0.39328   0.39332   0.39340
     Eigenvalues ---    0.39352   0.39414   0.39726   0.42862   0.42864
     Eigenvalues ---    0.42864   0.42864   0.42872   0.42883   0.42893
     Eigenvalues ---    0.42924   0.43147   0.48000   0.53122   0.57454
     Eigenvalues --- 1000.000001000.00000
 RFO step:  Lambda=-4.62298361D-02 EMin= 1.01465927D-02
 Linear search not attempted -- first point.
 Maximum step size (   0.300) exceeded in Quadratic search.
    -- Step size scaled by   0.716
 Variable       Old X    -DE/DX   Delta X   Delta X   Delta X     New X
                                 (Linear)    (Quad)   (Total)
    B1        2.87308   0.00148   0.00000   0.00303   0.00303   2.87612
    B2        2.06829   0.00477   0.00000   0.00877   0.00877   2.07706
    A2        1.92443   0.00667   0.00000   0.01829   0.01829   1.94271
    B3        2.06866   0.00515   0.00000   0.00947   0.00947   2.07814
    A3        1.93731   0.00207   0.00000   0.00100   0.00100   1.93831
    D3        4.19337  -0.00109   0.00000  -0.00551  -0.00551   4.18785
    B4        2.06865   0.00516   0.00000   0.00949   0.00949   2.07813
    A4        1.93737   0.00207   0.00000   0.00086   0.00086   1.93822
    D4        2.08990   0.00108   0.00000   0.00500   0.00500   2.09490
    B5        2.88837  -0.00300   0.00000  -0.00628  -0.00628   2.88209
    A5        1.94593   0.01039   0.00000   0.01914   0.01914   1.96507
    D5        3.14200   0.00000   0.00000   0.00299   0.00299   3.14500
    B6        2.07156   0.00600   0.00000   0.01109   0.01109   2.08265
    A6        1.90492   0.00509   0.00000   0.00730   0.00730   1.91222
    D6        1.02042  -0.00113   0.00000  -0.00187  -0.00187   1.01856
    B7        2.07156   0.00600   0.00000   0.01109   0.01109   2.08265
    A7        1.90497   0.00508   0.00000   0.00727   0.00727   1.91224
    D7        5.26348   0.00115   0.00000   0.00615   0.00615   5.26964
    B8        2.89047  -0.00296   0.00000  -0.00621  -0.00621   2.88425
    A8        1.94309   0.01154   0.00000   0.02454   0.02454   1.96763
    D8        3.14277  -0.00005   0.00000   0.00670   0.00670   3.14947
    B9        2.07275   0.00635   0.00000   0.01176   0.01176   2.08450
    A9        1.91232   0.00111   0.00000  -0.00235  -0.00235   1.90998
    D9        1.02439  -0.00217   0.00000  -0.00443  -0.00443   1.01996
   B10        2.07275   0.00635   0.00000   0.01175   0.01175   2.08450
   A10        1.91235   0.00111   0.00000  -0.00336  -0.00336   1.90899
   D10        5.26097   0.00217   0.00000   0.01282   0.01282   5.27379
   B11        2.89051  -0.00293   0.00000  -0.00616  -0.00616   2.88435
   A11        1.94306   0.01164   0.00000   0.02552   0.02552   1.96858
   D11        3.14246  -0.00002   0.00000   0.00283   0.00283   3.14528
   B12        2.07269   0.00623   0.00000   0.01153   0.01153   2.08422
   A12        1.91222   0.00122   0.00000  -0.00276  -0.00276   1.90946
[...]
     5  H    0.008649  -0.009923   0.000440   0.007719  -0.001912  -0.000007
     6  C   -0.024658  -0.024726   0.366670   0.372502   0.372568  -0.039145
     7  H    0.692759  -0.036034  -0.007359   0.009824  -0.012033   0.000330
     8  H   -0.036034   0.692833  -0.007309  -0.011991   0.009827   0.000337
     9  C   -0.007359  -0.007309   4.747481  -0.021902  -0.022075   0.368679
    10  H    0.009824  -0.011991  -0.021902   0.699914  -0.038209  -0.007519
    11  H   -0.012033   0.009827  -0.022075  -0.038209   0.699935  -0.007495
    12  C    0.000330   0.000337   0.368679  -0.007519  -0.007495   4.743111
    13  H    0.008389  -0.002098   0.370286   0.009708  -0.011990  -0.022402
    14  H   -0.002080   0.008360   0.370080  -0.012098   0.009711  -0.022374
    15  C    0.000004   0.000005  -0.040840   0.000398   0.000411   0.372521
    16  H    0.000020  -0.000042  -0.022782   0.008122  -0.002038   0.369866
    17  H   -0.000041   0.000020  -0.022794  -0.002017   0.008141   0.370015
    18  C    0.000000   0.000000   0.007964   0.000001   0.000001  -0.042273
    19  H   -0.000011   0.000004  -0.007099   0.000018  -0.000041  -0.022585
    20  H    0.000004  -0.000011  -0.007142  -0.000040   0.000018  -0.022443
    21  C    0.000000   0.000000  -0.000409   0.000000   0.000000   0.007976
    22  H    0.000000   0.000000   0.000362  -0.000011   0.000005  -0.007153
    23  H    0.000000   0.000000   0.000340   0.000005  -0.000011  -0.007038
    24  C    0.000000   0.000000   0.000006   0.000000   0.000000  -0.000392
    25  H    0.000000   0.000000   0.000003   0.000000   0.000000   0.000349
    26  H    0.000000   0.000000   0.000002   0.000000   0.000000   0.000357
    27  C    0.000000   0.000000   0.000000   0.000000   0.000000   0.000006
    28  H    0.000000   0.000000   0.000000   0.000000   0.000000  -0.000002
    29  H    0.000000   0.000000   0.000000   0.000000   0.000000  -0.000005
    30  C    0.000000   0.000000   0.000000   0.000000   0.000000   0.000000
    31  H    0.000000   0.000000   0.000000   0.000000   0.000000   0.000000
    32  H    0.000000   0.000000   0.000000   0.000000   0.000000   0.000000
    33  C    0.000000   0.000000   0.000000   0.000000   0.000000   0.000000
    34  H    0.000000   0.000000   0.000000   0.000000   0.000000   0.000000
    35  H    0.000000   0.000000   0.000000   0.000000   0.000000   0.000000
    36  H    0.000000   0.000000   0.000000   0.000000   0.000000   0.000000
              13         14         15         16         17         18
     1  C    0.000278   0.000265   0.000007   0.000007   0.000007   0.000000
     2  C   -0.006689  -0.006702  -0.000378   0.000298   0.000289   0.000006
     3  H    0.000008   0.000008   0.000000   0.000000   0.000000   0.000000
     4  H   -0.000051   0.000025   0.000000   0.000003  -0.000009   0.000000
     5  H    0.000025  -0.000050   0.000000  -0.000009   0.000003   0.000000
     6  C   -0.023579  -0.023426   0.007680  -0.007045  -0.007090  -0.000404
     7  H    0.008389  -0.002080   0.000004   0.000020  -0.000041   0.000000
     8  H   -0.002098   0.008360   0.000005  -0.000042   0.000020   0.000000
     9  C    0.370286   0.370080  -0.040840  -0.022782  -0.022794   0.007964
    10  H    0.009708  -0.012098   0.000398   0.008122  -0.002017   0.000001
    11  H   -0.011990   0.009711   0.000411  -0.002038   0.008141   0.000001
    12  C   -0.022402  -0.022374   0.372521   0.369866   0.370015  -0.042273
    13  H    0.699234  -0.037439  -0.007316   0.009654  -0.012049   0.000362
    14  H   -0.037439   0.699355  -0.007279  -0.011993   0.009655   0.000371
    15  C   -0.007316  -0.007279   4.737813  -0.022303  -0.022462   0.373929
    16  H    0.009654  -0.011993  -0.022303   0.698962  -0.037332  -0.007306
    17  H   -0.012049   0.009655  -0.022462  -0.037332   0.698794  -0.007228
    18  C    0.000362   0.000371   0.373929  -0.007306  -0.007228   4.737047
    19  H    0.008186  -0.002035   0.370139   0.009637  -0.011972  -0.022621
    20  H   -0.002015   0.008169   0.369715  -0.012085   0.009643  -0.022454
    21  C    0.000003   0.000004  -0.041039   0.000359   0.000370   0.371937
    22  H    0.000019  -0.000041  -0.022008   0.008166  -0.002031   0.369849
    23  H   -0.000040   0.000019  -0.022553  -0.002010   0.008156   0.370826
    24  C    0.000000   0.000000   0.007502   0.000003   0.000004  -0.039055
    25  H   -0.000011   0.000005  -0.007141   0.000018  -0.000040  -0.021919
    26  H    0.000005  -0.000011  -0.007319  -0.000040   0.000018  -0.021513
    27  C    0.000000   0.000000  -0.000381   0.000000   0.000000   0.007847
    28  H    0.000000   0.000000   0.000421  -0.000011   0.000005  -0.007513
    29  H    0.000000   0.000000   0.000456   0.000005  -0.000010  -0.007827
    30  C    0.000000   0.000000   0.000008   0.000000   0.000000  -0.000404
    31  H    0.000000   0.000000   0.000007   0.000000   0.000000   0.000288
    32  H    0.000000   0.000000   0.000004   0.000000   0.000000   0.000355
    33  C    0.000000   0.000000   0.000000   0.000000   0.000000  -0.000020
    34  H    0.000000   0.000000   0.000000   0.000000   0.000000   0.000001
    35  H    0.000000   0.000000   0.000000   0.000000   0.000000  -0.000001
    36  H    0.000000   0.000000   0.000001   0.000000   0.000000  -0.000030
              19         20         21         22         23         24
     1  C    0.000000   0.000000   0.000000   0.000000   0.000000   0.000000
     2  C    0.000003   0.000003   0.000000   0.000000   0.000000   0.000000
     3  H    0.000000   0.000000   0.000000   0.000000   0.000000   0.000000
     4  H    0.000000   0.000000   0.000000   0.000000   0.000000   0.000000
     5  H    0.000000   0.000000   0.000000   0.000000   0.000000   0.000000
     6  C    0.000355   0.000341   0.000007   0.000003   0.000003   0.000000
     7  H   -0.000011   0.000004   0.000000   0.000000   0.000000   0.000000
     8  H    0.000004  -0.000011   0.000000   0.000000   0.000000   0.000000
     9  C   -0.007099  -0.007142  -0.000409   0.000362   0.000340   0.000006
    10  H    0.000018  -0.000040   0.000000  -0.000011   0.000005   0.000000
    11  H   -0.000041   0.000018   0.000000   0.000005  -0.000011   0.000000
    12  C   -0.022585  -0.022443   0.007976  -0.007153  -0.007038  -0.000392
    13  H    0.008186  -0.002015   0.000003   0.000019  -0.000040   0.000000
    14  H   -0.002035   0.008169   0.000004  -0.000041   0.000019   0.000000
    15  C    0.370139   0.369715  -0.041039  -0.022008  -0.022553   0.007502
    16  H    0.009637  -0.012085   0.000359   0.008166  -0.002010   0.000003
    17  H   -0.011972   0.009643   0.000370  -0.002031   0.008156   0.000004
    18  C   -0.022621  -0.022454   0.371937   0.369849   0.370826  -0.039055
    19  H    0.698372  -0.037251  -0.007285   0.009607  -0.012034   0.000374
    20  H   -0.037251   0.698814  -0.007292  -0.011964   0.009600   0.000398
    21  C   -0.007285  -0.007292   4.745974  -0.022741  -0.023254   0.358019
    22  H    0.009607  -0.011964  -0.022741   0.697479  -0.037023  -0.006975
    23  H   -0.012034   0.009600  -0.023254  -0.037023   0.696627  -0.006793
    24  C    0.000374   0.000398   0.358019  -0.006975  -0.006793   4.790180
    25  H    0.008134  -0.002020   0.369320   0.009557  -0.011913  -0.021550
    26  H   -0.001996   0.008131   0.370041  -0.012023   0.009559  -0.023087
    27  C    0.000001   0.000003  -0.045821   0.000272   0.000387   0.423851
    28  H    0.000017  -0.000042  -0.021033   0.007923  -0.002083   0.368215
    29  H   -0.000037   0.000015  -0.018243  -0.002052   0.007678   0.367215
    30  C    0.000000   0.000000   0.009063   0.000005  -0.000017  -0.056319
    31  H   -0.000012   0.000004  -0.004994   0.000011  -0.000044  -0.031148
    32  H    0.000005  -0.000013  -0.007214  -0.000053   0.000009  -0.027189
    33  C    0.000000   0.000000   0.000854   0.000000  -0.000017  -0.018063
    34  H    0.000000   0.000000  -0.000054   0.000000   0.000000   0.000990
    35  H    0.000000   0.000000   0.000059   0.000000   0.000000  -0.001191
    36  H    0.000000   0.000000   0.001468  -0.000022   0.000005  -0.016739
              25         26         27         28         29         30
     1  C    0.000000   0.000000   0.000000   0.000000   0.000000   0.000000
     2  C    0.000000   0.000000   0.000000   0.000000   0.000000   0.000000
     3  H    0.000000   0.000000   0.000000   0.000000   0.000000   0.000000
     4  H    0.000000   0.000000   0.000000   0.000000   0.000000   0.000000
     5  H    0.000000   0.000000   0.000000   0.000000   0.000000   0.000000
     6  C    0.000000   0.000000   0.000000   0.000000   0.000000   0.000000
     7  H    0.000000   0.000000   0.000000   0.000000   0.000000   0.000000
     8  H    0.000000   0.000000   0.000000   0.000000   0.000000   0.000000
     9  C    0.000003   0.000002   0.000000   0.000000   0.000000   0.000000
    10  H    0.000000   0.000000   0.000000   0.000000   0.000000   0.000000
    11  H    0.000000   0.000000   0.000000   0.000000   0.000000   0.000000
    12  C    0.000349   0.000357   0.000006  -0.000002  -0.000005   0.000000
    13  H   -0.000011   0.000005   0.000000   0.000000   0.000000   0.000000
    14  H    0.000005  -0.000011   0.000000   0.000000   0.000000   0.000000
    15  C   -0.007141  -0.007319  -0.000381   0.000421   0.000456   0.000008
    16  H    0.000018  -0.000040   0.000000  -0.000011   0.000005   0.000000
    17  H   -0.000040   0.000018   0.000000   0.000005  -0.000010   0.000000
    18  C   -0.021919  -0.021513   0.007847  -0.007513  -0.007827  -0.000404
    19  H    0.008134  -0.001996   0.000001   0.000017  -0.000037   0.000000
    20  H   -0.002020   0.008131   0.000003  -0.000042   0.000015   0.000000
    21  C    0.369320   0.370041  -0.045821  -0.021033  -0.018243   0.009063
    22  H    0.009557  -0.012023   0.000272   0.007923  -0.002052   0.000005
    23  H   -0.011913   0.009559   0.000387  -0.002083   0.007678  -0.000017
    24  C   -0.021550  -0.023087   0.423851   0.368215   0.367215  -0.056319
    25  H    0.695082  -0.037038  -0.006964   0.009429  -0.011806   0.000488
    26  H   -0.037038   0.695427  -0.006530  -0.011762   0.009347   0.000390
    27  C   -0.006964  -0.006530   4.693608  -0.029392  -0.034486   0.408064
    28  H    0.009429  -0.011762  -0.029392   0.693417  -0.035023  -0.000712
    29  H   -0.011806   0.009347  -0.034486  -0.035023   0.687612   0.001758
    30  C    0.000488   0.000390   0.408064  -0.000712   0.001758   4.736730
    31  H    0.007714  -0.002017   0.367777   0.009744  -0.011377  -0.025039
    32  H   -0.002178   0.008673   0.344126  -0.010640   0.010433  -0.013269
    33  C   -0.000052   0.000017  -0.072493  -0.002741   0.011581   0.674393
    34  H    0.000004  -0.000001   0.007624  -0.000054  -0.000927  -0.006953
    35  H   -0.000007   0.000001  -0.009127   0.000125   0.000324  -0.038654
    36  H    0.000007  -0.000062  -0.053157   0.010498  -0.001500   0.360471
              31         32         33         34         35         36
     1  C    0.000000   0.000000   0.000000   0.000000   0.000000   0.000000
     2  C    0.000000   0.000000   0.000000   0.000000   0.000000   0.000000
     3  H    0.000000   0.000000   0.000000   0.000000   0.000000   0.000000
     4  H    0.000000   0.000000   0.000000   0.000000   0.000000   0.000000
     5  H    0.000000   0.000000   0.000000   0.000000   0.000000   0.000000
     6  C    0.000000   0.000000   0.000000   0.000000   0.000000   0.000000
     7  H    0.000000   0.000000   0.000000   0.000000   0.000000   0.000000
     8  H    0.000000   0.000000   0.000000   0.000000   0.000000   0.000000
     9  C    0.000000   0.000000   0.000000   0.000000   0.000000   0.000000
    10  H    0.000000   0.000000   0.000000   0.000000   0.000000   0.000000
    11  H    0.000000   0.000000   0.000000   0.000000   0.000000   0.000000
    12  C    0.000000   0.000000   0.000000   0.000000   0.000000   0.000000
    13  H    0.000000   0.000000   0.000000   0.000000   0.000000   0.000000
    14  H    0.000000   0.000000   0.000000   0.000000   0.000000   0.000000
    15  C    0.000007   0.000004   0.000000   0.000000   0.000000   0.000001
    16  H    0.000000   0.000000   0.000000   0.000000   0.000000   0.000000
    17  H    0.000000   0.000000   0.000000   0.000000   0.000000   0.000000
    18  C    0.000288   0.000355  -0.000020   0.000001  -0.000001  -0.000030
    19  H   -0.000012   0.000005   0.000000   0.000000   0.000000   0.000000
    20  H    0.000004  -0.000013   0.000000   0.000000   0.000000   0.000000
    21  C   -0.004994  -0.007214   0.000854  -0.000054   0.000059   0.001468
    22  H    0.000011  -0.000053   0.000000   0.000000   0.000000  -0.000022
    23  H   -0.000044   0.000009  -0.000017   0.000000   0.000000   0.000005
    24  C   -0.031148  -0.027189  -0.018063   0.000990  -0.001191  -0.016739
    25  H    0.007714  -0.002178  -0.000052   0.000004  -0.000007   0.000007
    26  H   -0.002017   0.008673   0.000017  -0.000001   0.000001  -0.000062
    27  C    0.367777   0.344126  -0.072493   0.007624  -0.009127  -0.053157
    28  H    0.009744  -0.010640  -0.002741  -0.000054   0.000125   0.010498
    29  H   -0.011377   0.010433   0.011581  -0.000927   0.000324  -0.001500
    30  C   -0.025039  -0.013269   0.674393  -0.006953  -0.038654   0.360471
    31  H    0.686514  -0.032447  -0.009370  -0.000552   0.005102   0.010733
    32  H   -0.032447   0.695284   0.010837  -0.000379   0.000048  -0.006485
    33  C   -0.009370   0.010837   4.803081   0.377517   0.389340  -0.033167
    34  H   -0.000552  -0.000379   0.377517   0.639110  -0.050014  -0.025195
    35  H    0.005102   0.000048   0.389340  -0.050014   0.641323   0.011525
    36  H    0.010733  -0.006485  -0.033167  -0.025195   0.011525   0.727211
 Mulliken charges:
               1
     1  C   -0.062136
     2  C   -0.077805
     3  H    0.039347
     4  H    0.035096
     5  H    0.035162
     6  C   -0.062610
     7  H    0.028230
     8  H    0.028206
     9  C   -0.039969
    10  H    0.020460
    11  H    0.020424
    12  C   -0.040009
    13  H    0.019521
    14  H    0.019503
    15  C   -0.040000
    16  H    0.019875
    17  H    0.019956
    18  C   -0.040216
    19  H    0.020128
    20  H    0.019912
    21  C   -0.036074
    22  H    0.020839
    23  H    0.021615
    24  C   -0.068256
    25  H    0.022528
    26  H    0.021431
    27  C    0.004785
    28  H    0.021216
    29  H    0.026871
    30  C   -0.050003
    31  H    0.029106
    32  H    0.030092
    33  C   -0.131696
    34  H    0.058883
    35  H    0.051149
    36  H    0.014440
 Sum of Mulliken charges =   0.00000
 Mulliken charges with hydrogens summed into heavy atoms:
               1
     1  C    0.047469
     2  C   -0.021369
     6  C   -0.021726
     9  C   -0.000946
    12  C   -0.000178
    15  C    0.000040
    18  C    0.002238
    21  C    0.007885
    24  C   -0.020169
    27  C    0.063983
    30  C   -0.035564
    33  C   -0.021664
 Electronic spatial extent (au):  <R**2>=           6846.9539
 Charge=              0.0000 electrons
 Dipole moment (field-independent basis, Debye):
    X=              0.7954    Y=             -0.0888    Z=             -0.0468  Tot=              0.8017
 Quadrupole moment (field-independent basis, Debye-Ang):
   XX=            -88.6987   YY=            -80.2576   ZZ=            -79.0583
   XY=              1.5471   XZ=              0.9526   YZ=              0.2646
 Traceless Quadrupole moment (field-independent basis, Debye-Ang):
   XX=             -6.0272   YY=              2.4139   ZZ=              3.6132
   XY=              1.5471   XZ=              0.9526   YZ=              0.2646
 Octapole moment (field-independent basis, Debye-Ang**2):
  XXX=             74.2169  YYY=             -2.1702  ZZZ=             -0.1429  XYY=             -3.6061
  XXY=             -8.8896  XXZ=            -11.4342  XZZ=             -0.3404  YZZ=              0.1978
  YYZ=              0.3650  XYZ=              0.8107
 Hexadecapole moment (field-independent basis, Debye-Ang**3):
 XXXX=          -9732.5570 YYYY=           -319.7785 ZZZZ=           -185.7061 XXXY=            109.1565
 XXXZ=             94.8143 YYYX=             14.1784 YYYZ=              3.9554 ZZZX=              4.3948
 ZZZY=             -2.4355 XXYY=          -1551.7049 XXZZ=          -1520.3516 YYZZ=            -82.7444
 XXYZ=              3.6213 YYXZ=             -2.8518 ZZXY=             -2.5299
 N-N= 6.552095276249D+02 E-N=-2.396360396629D+03  KE= 4.648574984966D+02
 1\1\GINC-NODE0236\POpt\RM06\def2SVP\C12H24\JGOODPAS\17-Oct-2017\1\\# O
 pt=(Z-mat,maxcycle=200) m06/def2svp Integral=SuperFineGrid\\C12H24\\0,
 1\C\C,1,B1\H,1,B2,2,A2\H,1,B3,2,A3,3,D3,0\H,1,B4,2,A4,3,D4,0\C,2,B5,1,
 A5,3,D5,0\H,2,B6,1,A6,3,D6,0\H,2,B7,1,A7,3,D7,0\C,6,B8,2,A8,1,D8,0\H,6
 ,B9,2,A9,1,D9,0\H,6,B10,2,A10,1,D10,0\C,9,B11,6,A11,2,D11,0\H,9,B12,6,
 A12,2,D12,0\H,9,B13,6,A13,2,D13,0\C,12,B14,9,A14,6,D14,0\H,12,B15,9,A1
 5,6,D15,0\H,12,B16,9,A16,6,D16,0\C,15,B17,12,A17,9,D17,0\H,15,B18,12,A
 18,9,D18,0\H,15,B19,12,A19,9,D19,0\C,18,B20,15,A20,12,D20,0\H,18,B21,1
 5,A21,12,D21,0\H,18,B22,15,A22,12,D22,0\C,21,B23,18,A23,15,D23,0\H,21,
 B24,18,A24,15,D24,0\H,21,B25,18,A25,15,D25,0\C,24,B26,21,A26,18,D26,0\
 H,24,B27,21,A27,18,D27,0\H,24,B28,21,A28,18,D28,0\C,27,B29,24,A29,21,D
 29,0\H,27,B30,24,A30,21,D30,0\H,27,B31,24,A31,21,D31,0\C,30,B32,27,A32
 ,24,D32,0\H,33,B33,30,A33,27,D33,0\H,33,B34,30,A34,27,D34,0\H,30,B35,2
 7,A35,24,D35,0\\B1=1.51589542\B2=1.10116758\A2=112.2618117\B3=1.103396
 75\A3=111.18546765\D3=239.58870472\B4=1.10337971\A4=111.19916681\D4=12
 0.44686756\B5=1.51868921\A5=113.10817254\D5=179.84659884\B6=1.10691054
 \A6=109.99951746\D6=57.6060997\B7=1.10692248\A7=110.00524244\D7=302.10
 39472\B8=1.51742661\A8=113.75909606\D8=179.94813259\B9=1.1086331\A9=10
 9.37954927\D9=57.2771669\B10=1.10864179\A10=109.36129361\D10=302.59216
 513\B11=1.51758301\A11=113.73931913\D11=179.79823278\B12=1.10846051\A1
 2=109.39179452\D12=57.1779639\B13=1.10846824\A13=109.39582421\D13=302.
 42830664\B14=1.51756246\A14=113.71545796\D14=179.90889035\B15=1.108419
 84\A15=109.40679923\D15=57.2748855\B16=1.1084193\A16=109.39237212\D16=
 302.51801397\B17=1.51760719\A17=113.6870681\D17=179.80147987\B18=1.108
 37763\A18=109.40198406\D18=57.19250225\B19=1.10840383\A19=109.40481786
 \D19=302.42288413\B20=1.5178508\A20=113.64006438\D20=179.87724536\B21=
 1.10833111\A21=109.40833912\D21=57.26401306\B22=1.10824766\A22=109.408
 85463\D22=302.46527709\B23=1.51799615\A23=113.32468349\D23=179.7308272
 7\B24=1.1080185\A24=109.41475192\D24=57.22078019\B25=1.10814603\A25=10
 9.43064597\D25=302.31367507\B26=1.52351929\A26=112.78053828\D26=180.26
 173778\B27=1.1075463\A27=109.58963186\D27=57.8160014\B28=1.10665665\A2
 8=110.05318273\D28=302.24206052\B29=1.50349119\A29=109.40074197\D29=18
 2.16647356\B30=1.10773143\A30=108.9399956\D30=59.24386825\B31=1.106940
 42\A31=108.75548784\D31=304.272659\B32=1.3448783\A32=130.96326174\D32=
 281.63678304\B33=1.09589056\A33=121.11713427\B34=1.10001756\A34=123.07
 023619\B35=1.11061908\A35=105.53482786\D35=57.20765874\D33=120.\D34=30
 0.\\Version=ES64L-G09RevD.01\State=1-A\HF=-470.942364\RMSD=7.033e-09\R
 MSF=6.843e-03\Dipole=0.1595068,0.016965,-0.271596\Quadrupole=0.4980289
 ,2.7785256,-3.2765545,-0.4273547,2.6844033,0.6175836\PG=C01 [X(C12H24)
 ]\\@


 ERWIN WITH HIS PSI CAN DO
 CALCULATIONS QUITE A FEW.
 BUT ONE THING HAS NOT BEEN SEEN
 JUST WHAT DOES PSI REALLY MEAN.
 -- WALTER HUCKEL, TRANS. BY FELIX BLOCH
 Job cpu time:       0 days  2 hours 40 minutes 40.0 seconds.
 File lengths (MBytes):  RWF=     40 Int=      0 D2E=      0 Chk=     17 Scr=      1
 Normal termination of Gaussian 09 at Tue Oct 17 17:10:56 2017.
9269.46user 370.52system 21:54.68elapsed 733%CPU (0avgtext+0avgdata 7505400maxresident)k
328584inputs+899136outputs (234major+234636526minor)pagefaults 0swaps
