 Entering Gaussian System, Link 0=g09
 Initial command:
 /soft/gaussian/g09.d01_itasca/g09/l1.exe "/scratch/jgoodpas/2034000.node1081.localdomain/Gau-24999.inp" -scrdir="/scratch/jgoodpas/2034000.node1081.localdomain/"
 Entering Link 1 = /soft/gaussian/g09.d01_itasca/g09/l1.exe PID=     25000.
  
 Copyright (c) 1988,1990,1992,1993,1995,1998,2003,2009,2013,
            Gaussian, Inc.  All Rights Reserved.
  
 This is part of the Gaussian(R) 09 program.  It is based on
 the Gaussian(R) 03 system (copyright 2003, Gaussian, Inc.),
 the Gaussian(R) 98 system (copyright 1998, Gaussian, Inc.),
 the Gaussian(R) 94 system (copyright 1995, Gaussian, Inc.),
 the Gaussian 92(TM) system (copyright 1992, Gaussian, Inc.),
 the Gaussian 90(TM) system (copyright 1990, Gaussian, Inc.),
 the Gaussian 88(TM) system (copyright 1988, Gaussian, Inc.),
 the Gaussian 86(TM) system (copyright 1986, Carnegie Mellon
 University), and the Gaussian 82(TM) system (copyright 1983,
 Carnegie Mellon University). Gaussian is a federally registered
 trademark of Gaussian, Inc.
  
 This software contains proprietary and confidential information,
 including trade secrets, belonging to Gaussian, Inc.
  
 This software is provided under written license and may be
 used, copied, transmitted, or stored only in accord with that
 written license.
  
 The following legend is applicable only to US Government
 contracts under FAR:
  
                    RESTRICTED RIGHTS LEGEND
  
 Use, reproduction and disclosure by the US Government is
 subject to restrictions as set forth in subparagraphs (a)
 and (c) of the Commercial Computer Software - Restricted
 Rights clause in FAR 52.227-19.
  
 Gaussian, Inc.
 340 Quinnipiac St., Bldg. 40, Wallingford CT 06492
  
  
 ---------------------------------------------------------------
 Warning -- This program may not be used in any manner that
 competes with the business of Gaussian, Inc. or will provide
 assistance to any competitor of Gaussian, Inc.  The licensee
 of this program is prohibited from giving any competitor of
 Gaussian, Inc. access to this program.  By using this program,
 the user acknowledges that Gaussian, Inc. is engaged in the
 business of creating and licensing software in the field of
 computational chemistry and represents and warrants to the
 licensee that it is not a competitor of Gaussian, Inc. and that
 it will not use this program in any manner prohibited above.
 ---------------------------------------------------------------
  

 Cite this work as:
 Gaussian 09, Revision D.01,
 M. J. Frisch, G. W. Trucks, H. B. Schlegel, G. E. Scuseria, 
 M. A. Robb, J. R. Cheeseman, G. Scalmani, V. Barone, B. Mennucci, 
 G. A. Petersson, H. Nakatsuji, M. Caricato, X. Li, H. P. Hratchian, 
 A. F. Izmaylov, J. Bloino, G. Zheng, J. L. Sonnenberg, M. Hada, 
 M. Ehara, K. Toyota, R. Fukuda, J. Hasegawa, M. Ishida, T. Nakajima, 
 Y. Honda, O. Kitao, H. Nakai, T. Vreven, J. A. Montgomery, Jr., 
 J. E. Peralta, F. Ogliaro, M. Bearpark, J. J. Heyd, E. Brothers, 
 K. N. Kudin, V. N. Staroverov, T. Keith, R. Kobayashi, J. Normand, 
 K. Raghavachari, A. Rendell, J. C. Burant, S. S. Iyengar, J. Tomasi, 
 M. Cossi, N. Rega, J. M. Millam, M. Klene, J. E. Knox, J. B. Cross, 
 V. Bakken, C. Adamo, J. Jaramillo, R. Gomperts, R. E. Stratmann, 
 O. Yazyev, A. J. Austin, R. Cammi, C. Pomelli, J. W. Ochterski, 
 R. L. Martin, K. Morokuma, V. G. Zakrzewski, G. A. Voth, 
 P. Salvador, J. J. Dannenberg, S. Dapprich, A. D. Daniels, 
 O. Farkas, J. B. Foresman, J. V. Ortiz, J. Cioslowski, 
 and D. J. Fox, Gaussian, Inc., Wallingford CT, 2013.
 
 ******************************************
 Gaussian 09:  ES64L-G09RevD.01 24-Apr-2013
                17-Oct-2017 
 ******************************************
 %LindaWorkers=ic-node0192
 %Mem=11800mb
 %NProcShared=8
 Will use up to    8 processors via shared memory.
 %chk=dimer.chk
 SetLPE:  input flags=" -workerwait 250000 -opt "Tsnet.Node.lindarsharg: ssh " "
 SetLPE:    new flags=" -workerwait 250000 -opt "Tsnet.Node.lindarsharg: ssh "  -nodelist 'ic-node0192'"
 Will use up to    1 processors via Linda.
 -------------------------------------------------------------
 # Opt=(Z-mat,maxcycle=200) m06/def2svp Integral=SuperFineGrid
 -------------------------------------------------------------
 1/6=200,10=7,14=-1,18=40,26=5,38=1/1,3;
 2/12=2,17=6,18=5,29=3,40=1/2;
 3/5=43,7=101,11=2,16=1,25=1,30=1,71=1,74=-54,75=-7/1,2,3;
 4//1;
 5/5=2,38=5/2;
 6/7=2,8=2,9=2,10=2,28=1/1;
 7/29=1/1,2,3,16;
 1/6=200,10=7,14=-1,18=40,26=5/3(2);
 2/29=3/2;
 99//99;
 2/29=3/2;
 3/5=43,7=101,11=2,16=1,25=1,30=1,71=1,74=-54,75=-7/1,2,3;
 4/5=5,16=3,69=1/1;
 5/5=2,38=5/2;
 7//1,2,3,16;
 1/6=200,14=-1,18=40,26=5/3(-5);
 2/29=3/2;
 6/7=2,8=2,9=2,10=2,19=2,28=1/1;
 99/9=1/99;
 ------
 C12H24
 ------
 Symbolic Z-matrix:
 Charge =  0 Multiplicity = 1
 C
 C                    1    B1
 H                    1    B2       2    A2
 H                    1    B3       2    A3       3    D3       0
 H                    1    B4       2    A4       3    D4       0
 C                    2    B5       1    A5       3    D5       0
 H                    2    B6       1    A6       3    D6       0
 H                    2    B7       1    A7       3    D7       0
 C                    6    B8       2    A8       1    D8       0
 H                    6    B9       2    A9       1    D9       0
 H                    6    B10      2    A10      1    D10      0
 C                    9    B11      6    A11      2    D11      0
 H                    9    B12      6    A12      2    D12      0
 H                    9    B13      6    A13      2    D13      0
 C                    12   B14      9    A14      6    D14      0
 H                    12   B15      9    A15      6    D15      0
 H                    12   B16      9    A16      6    D16      0
 C                    15   B17      12   A17      9    D17      0
 H                    15   B18      12   A18      9    D18      0
 H                    15   B19      12   A19      9    D19      0
 C                    18   B20      15   A20      12   D20      0
 H                    18   B21      15   A21      12   D21      0
 H                    18   B22      15   A22      12   D22      0
 C                    21   B23      18   A23      15   D23      0
 H                    21   B24      18   A24      15   D24      0
 H                    21   B25      18   A25      15   D25      0
 C                    24   B26      21   A26      18   D26      0
 H                    24   B27      21   A27      18   D27      0
 H                    24   B28      21   A28      18   D28      0
 C                    27   B29      24   A29      21   D29      0
 H                    27   B30      24   A30      21   D30      0
 H                    27   B31      24   A31      21   D31      0
 C                    30   B32      27   A32      24   D32      0
 H                    33   B33      30   A33      27   D33      0
 H                    33   B34      30   A34      27   D34      0
 H                    30   B35      27   A35      24   D35      0
       Variables:
  B1                    1.52037                  
  B2                    1.09449                  
  A2                  110.2615                   
  B3                    1.09469                  
  A3                  110.99941                  
  D3                  240.2622                   
  B4                    1.09468                  
  A4                  111.00291                  
  D4                  119.74267                  
  B5                    1.52846                  
  A5                  111.49348                  
  D5                  180.02355                  
  B6                    1.09622                  
  A6                  109.14402                  
  D6                   58.466                    
  B7                    1.09622                  
  A7                  109.14651                  
  D7                  301.57536                  
  B8                    1.52957                  
  A8                  111.33085                  
  D8                  180.06732                  
  B9                    1.09685                  
  A9                  109.56808                  
  D9                   58.69294                  
  B10                   1.09685                  
  A10                 109.56982                  
  D10                 301.43153                  
  B11                   1.52959                  
  A11                 111.32932                  
  D11                 180.0495                   
  B12                   1.09682                  
  A12                 109.56214                  
  D12                  58.69169                  
  B13                   1.09682                  
  A13                 109.57144                  
  D13                 301.40424                  
  B14                   1.52958                  
  A14                 111.33412                  
  D14                 180.11548                  
  B15                   1.09681                  
  A15                 109.56324                  
  D15                  58.75236                  
  B16                   1.09681                  
  A16                 109.56894                  
  D16                 301.4668                   
  B17                   1.52958                  
  A17                 111.32441                  
  D17                 180.06818                  
  B18                   1.09681                  
  A18                 109.56207                  
  D18                  58.71257                  
  B19                   1.09681                  
  A19                 109.57415                  
  D19                 301.42268                  
  B20                   1.5296                   
  A20                 111.33392                  
  D20                 180.12584                  
  B21                   1.09681                  
  A21                 109.56096                  
  D21                  58.76319                  
  B22                   1.09681                  
  A22                 109.57002                  
  D22                 301.47796                  
  B23                   1.53006                  
  A23                 111.33208                  
  D23                 180.06793                  
  B24                   1.09681                  
  A24                 109.55355                  
  D24                  58.71484                  
  B25                   1.09681                  
  A25                 109.57481                  
  D25                 301.41764                  
  B26                   1.52997                  
  A26                 111.27387                  
  D26                 180.07455                  
  B27                   1.09745                  
  A27                 109.45602                  
  D27                  58.51678                  
  B28                   1.09744                  
  A28                 109.4982                   
  D28                 301.54273                  
  B29                   1.50175                  
  A29                 111.29171                  
  D29                 180.59371                  
  B30                   1.0969                   
  A30                 109.65896                  
  D30                  57.82495                  
  B31                   1.09657                  
  A31                 109.82846                  
  D31                 300.6713                   
  B32                   1.33889                  
  A32                 124.10415                  
  D32                 241.95558                  
  B33                   1.08555                  
  A33                 121.75919                  
  B34                   1.08571                  
  A34                 120.7488                   
  B35                   1.08828                  
  A35                 116.90896                  
  D35                  62.58421                  
       Constants:
  D33                  45.                       
  D34                 225.                       
 

 GradGradGradGradGradGradGradGradGradGradGradGradGradGradGradGradGradGrad
 Berny optimization.
 Initialization pass.
                       ----------------------------
                       !    Initial Parameters    !
                       ! (Angstroms and Degrees)  !
 ----------------------                            ----------------------
 !      Name          Value   Derivative information (Atomic Units)     !
 ------------------------------------------------------------------------
 !       B1          1.5204   estimate D2E/DX2                          !
 !       B2          1.0945   estimate D2E/DX2                          !
 !       A2        110.2615   estimate D2E/DX2                          !
 !       B3          1.0947   estimate D2E/DX2                          !
 !       A3        110.9994   estimate D2E/DX2                          !
 !       D3        240.2622   estimate D2E/DX2                          !
 !       B4          1.0947   estimate D2E/DX2                          !
 !       A4        111.0029   estimate D2E/DX2                          !
 !       D4        119.7427   estimate D2E/DX2                          !
 !       B5          1.5285   estimate D2E/DX2                          !
 !       A5        111.4935   estimate D2E/DX2                          !
 !       D5        180.0236   estimate D2E/DX2                          !
 !       B6          1.0962   estimate D2E/DX2                          !
 !       A6        109.144    estimate D2E/DX2                          !
 !       D6         58.466    estimate D2E/DX2                          !
 !       B7          1.0962   estimate D2E/DX2                          !
 !       A7        109.1465   estimate D2E/DX2                          !
 !       D7        301.5754   estimate D2E/DX2                          !
 !       B8          1.5296   estimate D2E/DX2                          !
 !       A8        111.3308   estimate D2E/DX2                          !
 !       D8        180.0673   estimate D2E/DX2                          !
 !       B9          1.0969   estimate D2E/DX2                          !
 !       A9        109.5681   estimate D2E/DX2                          !
 !       D9         58.6929   estimate D2E/DX2                          !
 !       B10         1.0969   estimate D2E/DX2                          !
 !       A10       109.5698   estimate D2E/DX2                          !
 !       D10       301.4315   estimate D2E/DX2                          !
 !       B11         1.5296   estimate D2E/DX2                          !
 !       A11       111.3293   estimate D2E/DX2                          !
 !       D11       180.0495   estimate D2E/DX2                          !
 !       B12         1.0968   estimate D2E/DX2                          !
 !       A12       109.5621   estimate D2E/DX2                          !
 !       D12        58.6917   estimate D2E/DX2                          !
 !       B13         1.0968   estimate D2E/DX2                          !
 !       A13       109.5714   estimate D2E/DX2                          !
 !       D13       301.4042   estimate D2E/DX2                          !
 !       B14         1.5296   estimate D2E/DX2                          !
 !       A14       111.3341   estimate D2E/DX2                          !
 !       D14       180.1155   estimate D2E/DX2                          !
 !       B15         1.0968   estimate D2E/DX2                          !
 !       A15       109.5632   estimate D2E/DX2                          !
 !       D15        58.7524   estimate D2E/DX2                          !
 !       B16         1.0968   estimate D2E/DX2                          !
 !       A16       109.5689   estimate D2E/DX2                          !
 !       D16       301.4668   estimate D2E/DX2                          !
 !       B17         1.5296   estimate D2E/DX2                          !
 !       A17       111.3244   estimate D2E/DX2                          !
 !       D17       180.0682   estimate D2E/DX2                          !
 !       B18         1.0968   estimate D2E/DX2                          !
 !       A18       109.5621   estimate D2E/DX2                          !
 !       D18        58.7126   estimate D2E/DX2                          !
 !       B19         1.0968   estimate D2E/DX2                          !
 !       A19       109.5742   estimate D2E/DX2                          !
 !       D19       301.4227   estimate D2E/DX2                          !
 !       B20         1.5296   estimate D2E/DX2                          !
 !       A20       111.3339   estimate D2E/DX2                          !
 !       D20       180.1258   estimate D2E/DX2                          !
 !       B21         1.0968   estimate D2E/DX2                          !
 !       A21       109.561    estimate D2E/DX2                          !
 !       D21        58.7632   estimate D2E/DX2                          !
 !       B22         1.0968   estimate D2E/DX2                          !
 !       A22       109.57     estimate D2E/DX2                          !
 !       D22       301.478    estimate D2E/DX2                          !
 !       B23         1.5301   estimate D2E/DX2                          !
 !       A23       111.3321   estimate D2E/DX2                          !
 !       D23       180.0679   estimate D2E/DX2                          !
 !       B24         1.0968   estimate D2E/DX2                          !
 !       A24       109.5536   estimate D2E/DX2                          !
 !       D24        58.7148   estimate D2E/DX2                          !
 !       B25         1.0968   estimate D2E/DX2                          !
 !       A25       109.5748   estimate D2E/DX2                          !
 !       D25       301.4176   estimate D2E/DX2                          !
 !       B26         1.53     estimate D2E/DX2                          !
 !       A26       111.2739   estimate D2E/DX2                          !
 !       D26       180.0745   estimate D2E/DX2                          !
 !       B27         1.0975   estimate D2E/DX2                          !
 !       A27       109.456    estimate D2E/DX2                          !
 !       D27        58.5168   estimate D2E/DX2                          !
 !       B28         1.0974   estimate D2E/DX2                          !
 !       A28       109.4982   estimate D2E/DX2                          !
 !       D28       301.5427   estimate D2E/DX2                          !
 !       B29         1.5018   estimate D2E/DX2                          !
 !       A29       111.2917   estimate D2E/DX2                          !
 !       D29       180.5937   estimate D2E/DX2                          !
 !       B30         1.0969   estimate D2E/DX2                          !
 !       A30       109.659    estimate D2E/DX2                          !
 !       D30        57.8249   estimate D2E/DX2                          !
 !       B31         1.0966   estimate D2E/DX2                          !
 !       A31       109.8285   estimate D2E/DX2                          !
 !       D31       300.6713   estimate D2E/DX2                          !
 !       B32         1.3389   estimate D2E/DX2                          !
 !       A32       124.1042   estimate D2E/DX2                          !
 !       D32       241.9556   estimate D2E/DX2                          !
 !       B33         1.0856   estimate D2E/DX2                          !
 !       A33       121.7592   estimate D2E/DX2                          !
 !       B34         1.0857   estimate D2E/DX2                          !
 !       A34       120.7488   estimate D2E/DX2                          !
 !       B35         1.0883   estimate D2E/DX2                          !
 !       A35       116.909    estimate D2E/DX2                          !
 !       D35        62.5842   estimate D2E/DX2                          !
 !       D33        45.0      Frozen                                    !
 !       D34       225.0      Frozen                                    !
 ------------------------------------------------------------------------
 Trust Radius=3.00D-01 FncErr=1.00D-07 GrdErr=1.00D-07
 Number of steps in this run=    200 maximum allowed number of steps=    204.
 GradGradGradGradGradGradGradGradGradGradGradGradGradGradGradGradGradGrad

 ---------------------------------------------------------------------------------------------------
                            Z-MATRIX (ANGSTROMS AND DEGREES)
   CD    Cent   Atom    N1       Length/X        N2       Alpha/Y        N3        Beta/Z          J
 ---------------------------------------------------------------------------------------------------
      1      1  C 
      2      2  C        1   1.520370(     1)
      3      3  H        1   1.094490(     2)      2  110.262(    36)
      4      4  H        1   1.094690(     3)      2  110.999(    37)      3  240.262(    70)      0
      5      5  H        1   1.094680(     4)      2  111.003(    38)      3  119.743(    71)      0
      6      6  C        2   1.528460(     5)      1  111.493(    39)      3  180.024(    72)      0
      7      7  H        2   1.096220(     6)      1  109.144(    40)      3   58.466(    73)      0
      8      8  H        2   1.096220(     7)      1  109.147(    41)      3  301.575(    74)      0
      9      9  C        6   1.529570(     8)      2  111.331(    42)      1  180.067(    75)      0
     10     10  H        6   1.096850(     9)      2  109.568(    43)      1   58.693(    76)      0
     11     11  H        6   1.096850(    10)      2  109.570(    44)      1  301.432(    77)      0
     12     12  C        9   1.529590(    11)      6  111.329(    45)      2  180.050(    78)      0
     13     13  H        9   1.096820(    12)      6  109.562(    46)      2   58.692(    79)      0
     14     14  H        9   1.096820(    13)      6  109.571(    47)      2  301.404(    80)      0
     15     15  C       12   1.529580(    14)      9  111.334(    48)      6  180.115(    81)      0
     16     16  H       12   1.096810(    15)      9  109.563(    49)      6   58.752(    82)      0
     17     17  H       12   1.096810(    16)      9  109.569(    50)      6  301.467(    83)      0
     18     18  C       15   1.529580(    17)     12  111.324(    51)      9  180.068(    84)      0
     19     19  H       15   1.096810(    18)     12  109.562(    52)      9   58.713(    85)      0
     20     20  H       15   1.096810(    19)     12  109.574(    53)      9  301.423(    86)      0
     21     21  C       18   1.529600(    20)     15  111.334(    54)     12  180.126(    87)      0
     22     22  H       18   1.096810(    21)     15  109.561(    55)     12   58.763(    88)      0
     23     23  H       18   1.096810(    22)     15  109.570(    56)     12  301.478(    89)      0
     24     24  C       21   1.530060(    23)     18  111.332(    57)     15  180.068(    90)      0
     25     25  H       21   1.096810(    24)     18  109.554(    58)     15   58.715(    91)      0
     26     26  H       21   1.096810(    25)     18  109.575(    59)     15  301.418(    92)      0
     27     27  C       24   1.529970(    26)     21  111.274(    60)     18  180.075(    93)      0
     28     28  H       24   1.097450(    27)     21  109.456(    61)     18   58.517(    94)      0
     29     29  H       24   1.097440(    28)     21  109.498(    62)     18  301.543(    95)      0
     30     30  C       27   1.501750(    29)     24  111.292(    63)     21  180.594(    96)      0
     31     31  H       27   1.096900(    30)     24  109.659(    64)     21   57.825(    97)      0
     32     32  H       27   1.096570(    31)     24  109.828(    65)     21  300.671(    98)      0
     33     33  C       30   1.338890(    32)     27  124.104(    66)     24  241.956(    99)      0
     34     34  H       33   1.085550(    33)     30  121.759(    67)     27   45.000(   100)      0
     35     35  H       33   1.085710(    34)     30  120.749(    68)     27  225.000(   101)      0
     36     36  H       30   1.088280(    35)     27  116.909(    69)     24   62.584(   102)      0
 ---------------------------------------------------------------------------------------------------
                         Z-Matrix orientation:                         
 ---------------------------------------------------------------------
 Center     Atomic      Atomic             Coordinates (Angstroms)
 Number     Number       Type             X           Y           Z
 ---------------------------------------------------------------------
      1          6           0        0.000000    0.000000    0.000000
      2          6           0        0.000000    0.000000    1.520370
      3          1           0        1.026765    0.000000   -0.379028
      4          1           0       -0.506937    0.887394   -0.392291
      5          1           0       -0.506996   -0.887322   -0.392350
      6          6           0       -1.422170   -0.000585    2.080391
      7          1           0        0.541621    0.882669    1.879869
      8          1           0        0.542250   -0.882265    1.879914
      9          6           0       -1.417829    0.001091    3.609954
     10          1           0       -1.960390   -0.883823    1.715305
     11          1           0       -1.961845    0.881033    1.713538
     12          6           0       -2.841064   -0.000725    4.170352
     13          1           0       -0.880476    0.884957    3.974709
     14          1           0       -0.877544   -0.880117    3.976802
     15          6           0       -2.836857    0.003823    5.699919
     16          1           0       -3.377699   -0.885606    3.807035
     17          1           0       -3.382035    0.879433    3.802024
     18          6           0       -4.260172    0.000310    6.260077
     19          1           0       -2.301279    0.889417    6.063059
     20          1           0       -2.294922   -0.875633    6.068507
     21          6           0       -4.256232    0.007986    7.789653
     22          1           0       -4.794941   -0.886396    5.898461
     23          1           0       -4.802856    0.878620    5.889863
     24          6           0       -5.680003    0.002782    8.349950
     25          1           0       -3.722490    0.895453    8.150919
     26          1           0       -3.712685   -0.869677    8.160135
     27          6           0       -5.674519    0.012323    9.879880
     28          1           0       -6.213070   -0.884521    7.985355
     29          1           0       -6.223979    0.879534    7.976089
     30          6           0       -7.071612   -0.007278   10.430335
     31          1           0       -5.128482    0.892261   10.241464
     32          1           0       -5.141577   -0.869376   10.255440
     33          6           0       -7.595135    0.967368   11.184400
     34          1           0       -7.474182    2.015337   10.928371
     35          1           0       -8.160312    0.732523   12.081166
     36          1           0       -7.679357   -0.880293   10.200458
 ---------------------------------------------------------------------
                    Distance matrix (angstroms):
                    1          2          3          4          5
     1  C    0.000000
     2  C    1.520370   0.000000
     3  H    1.094490   2.159157   0.000000
     4  H    1.094690   2.168577   1.771972   0.000000
     5  H    1.094680   2.168613   1.771988   1.774717   0.000000
     6  C    2.520038   1.528460   3.470738   2.782142   2.781779
     7  H    2.146244   1.096220   2.473274   2.502440   3.065199
     8  H    2.146276   1.096220   2.473047   3.065192   2.502823
     9  C    3.878402   2.525193   4.678463   4.199193   4.199682
    10  H    2.750735   2.159230   3.753727   3.113149   2.560191
    11  H    2.749776   2.159252   3.753244   2.559554   3.111018
    12  C    5.046135   3.885106   5.971344   5.201405   5.201170
    13  H    4.166137   2.753574   4.834847   4.382948   4.727755
    14  H    4.166491   2.752953   4.834693   4.727624   4.384843
    15  C    6.366856   5.051376   7.202859   6.582116   6.583171
    16  H    5.165913   4.173965   6.140580   5.386942   5.086823
    17  H    5.164005   4.173428   6.139390   5.085128   5.383311
    18  C    7.572162   6.372903   8.487015   7.689454   7.689539
    19  H    6.545810   5.169427   7.305301   6.700091   6.931707
    20  H    6.546768   5.169037   7.305548   6.931599   6.703692
    21  C    8.876613   7.577564   9.728179   9.042941   9.044530
    22  H    7.653038   6.553231   8.607254   7.817088   7.613197
    23  H    7.650482   6.552241   8.605547   7.610549   7.812756
    24  C   10.098718   8.882882  11.007988  10.196564  10.197063
    25  H    9.005346   7.656563   9.803941   9.128324   9.300814
    26  H    9.007118   7.656817   9.804898   9.300974   9.133551
    27  C   11.393522  10.103550  12.253675  11.532006  11.533922
    28  H   10.156304   9.010030  11.097769  10.290024  10.136332
    29  H   10.155269   9.010427  11.097515  10.134812  10.287684
    30  C   12.601572  11.375202  13.506520  12.689548  12.688545
    31  H   11.488475  10.156522  12.307642  11.594631  11.730433
    32  H   11.505028  10.173154  12.324616  11.744799  11.612713
    33  C   13.554065  12.329451  14.456342  13.574562  13.700465
    34  H   13.392322  12.183409  14.289330  13.340621  13.606096
    35  H   14.597324  13.366289  15.498239  14.635070  14.723646
    36  H   12.798312  11.622882  13.729421  12.914127  12.792592
                    6          7          8          9         10
     6  C    0.000000
     7  H    2.162596   0.000000
     8  H    2.162521   1.764935   0.000000
     9  C    1.529570   2.758590   2.759577   0.000000
    10  H    1.096850   3.067188   2.508049   2.160357   0.000000
    11  H    1.096850   2.508986   3.067147   2.160241   1.764858
    12  C    2.526103   4.179624   4.179717   1.529590   2.753671
    13  H    2.160106   2.531941   3.087943   1.096820   3.065894
    14  H    2.160225   3.085219   2.532343   1.096820   2.507378
    15  C    3.886174   5.174869   5.176481   2.526184   4.175316
    16  H    2.754752   4.711883   4.368044   2.160130   2.526678
    17  H    2.753093   4.369184   4.711486   2.160203   3.079698
    18  C    5.052132   6.559116   6.559576   3.886138   5.169685
    19  H    4.174516   5.057787   5.359405   2.754511   4.707818
    20  H    4.175222   5.355585   5.059042   2.753620   4.366045
    21  C    6.373983   7.662246   7.664398   5.052372   6.554687
    22  H    5.170871   6.910685   6.680894   4.174899   5.053066
    23  H    5.168570   6.681580   6.910178   4.174500   5.349089
    24  C    7.578689   9.019133   9.020039   6.374456   7.657682
    25  H    6.553295   7.583462   7.789339   5.170272   6.905647
    26  H    6.554775   7.785345   7.585896   5.169986   6.678816
    27  C    8.883393  10.168485  10.170937   7.578358   9.014328
    28  H    7.655238   9.275008   9.105535   6.551548   7.576200
    29  H    7.654491   9.106989   9.276268   6.552394   7.777212
    30  C   10.081558  11.483196  11.482430   8.859059  10.141236
    31  H    9.007611  10.102794  10.257762   7.651148   9.267507
    32  H    9.023315  10.272224  10.122030   7.667235   9.113400
    33  C   11.041984  12.360756  12.498466   9.821662  11.173228
    34  H   10.907683  12.141311  12.431165   9.710604  11.121494
    35  H   12.081205  13.409424  13.505839  10.851613  12.186168
    36  H   10.288916  11.828979  11.697277   9.133363  10.232518
                   11         12         13         14         15
    11  H    0.000000
    12  C    2.754352   0.000000
    13  H    2.506446   2.160234   0.000000
    14  H    3.065897   2.160139   1.765078   0.000000
    15  C    4.174491   1.529580   2.753212   2.754885   0.000000
    16  H    3.083567   1.096810   3.065801   2.505919   2.160233
    17  H    2.525611   1.096810   2.507518   3.065785   2.160074
    18  C    5.170010   2.526029   4.174668   4.175006   1.529580
    19  H    4.362754   2.160107   2.525848   3.083949   1.096810
    20  H    4.707714   2.160261   3.079663   2.526699   1.096810
    21  C    6.553289   3.886145   5.169004   5.171276   2.526189
    22  H    5.353860   2.754707   4.707605   4.363349   2.160092
    23  H    5.051043   2.752925   4.364965   4.707550   2.160208
    24  C    7.657544   5.052586   6.554115   6.554963   3.886662
    25  H    6.673826   4.174322   5.051523   5.354402   2.754406
    26  H    6.905725   4.175306   5.349574   5.053554   2.753678
    27  C    9.012644   6.373959   7.656068   7.658573   5.052175
    28  H    7.779832   5.167763   6.903107   6.673556   4.172671
    29  H    7.575310   5.167456   6.675634   6.904711   4.173777
    30  C   10.143045   7.555459   8.988957   8.987569   6.349024
    31  H    9.096881   6.548902   7.570854   7.775461   5.163962
    32  H    9.281094   6.563171   7.789881   7.589689   5.179477
    33  C   11.019920   8.528498   9.852567  10.024405   7.324559
    34  H   10.797484   8.438076   9.649256  10.011174   7.272392
    35  H   12.080180   9.561017  10.896508  11.014537   8.342091
    36  H   10.383642   7.781061   9.386205   9.219466   6.669807
                   16         17         18         19         20
    16  H    0.000000
    17  H    1.765051   0.000000
    18  C    2.753366   2.754271   0.000000
    19  H    3.065784   2.506075   2.160229   0.000000
    20  H    2.507341   3.065781   2.160135   1.765070   0.000000
    21  C    4.175114   4.174306   1.529600   2.753160   2.754971
    22  H    2.526388   3.083748   1.096810   3.065771   2.505818
    23  H    3.079243   2.525432   1.096810   2.507588   3.065787
    24  C    5.169905   5.170378   2.526558   4.175137   4.175568
    25  H    4.707482   4.362231   2.160015   2.525676   3.084013
    26  H    4.366000   4.707638   2.160287   3.079644   2.526855
    27  C    6.554472   6.553449   3.886321   5.168768   5.170755
    28  H    5.049524   5.350379   2.751966   4.705761   4.361911
    29  H    5.347714   5.049700   2.752139   4.364327   4.707119
    30  C    7.634432   7.637653   5.029443   6.529413   6.526588
    31  H    6.901300   6.672079   4.171449   5.045013   5.344912
    32  H    6.685317   6.913819   4.182840   5.360662   5.062992
    33  C    8.697460   8.500437   6.025457   7.366079   7.593502
    34  H    8.712639   8.295829   6.015244   7.190124   7.668163
    35  H    9.692935   9.560215   7.045020   8.400625   8.552253
    36  H    7.705852   7.905921   5.290831   7.012394   6.787134
                   21         22         23         24         25
    21  C    0.000000
    22  H    2.160262   0.000000
    23  H    2.160093   1.765055   0.000000
    24  C    1.530060   2.753865   2.754724   0.000000
    25  H    1.096810   3.065731   2.505963   2.160632   0.000000
    26  H    1.096810   2.507335   3.065803   2.160452   1.765182
    27  C    2.525986   4.175291   4.174985   1.529970   2.753114
    28  H    2.159649   2.523137   3.080334   1.097450   3.065731
    29  H    2.160181   3.078506   2.524268   1.097440   2.507641
    30  C    3.860025   5.147228   5.152471   2.502934   4.150575
    31  H    2.748480   4.704950   4.363789   2.161753   2.519365
    32  H    2.762916   4.370779   4.714709   2.163667   3.091510
    33  C    4.857262   6.262482   5.986387   3.554190   4.919812
    34  H    4.923029   6.395185   5.815039   3.730645   4.800372
    35  H    5.846698   7.223051   7.044579   4.539431   5.930232
    36  H    4.280048   5.179486   5.472593   2.863847   4.796945
                   26         27         28         29         30
    26  H    0.000000
    27  C    2.753949   0.000000
    28  H    2.506530   2.164161   0.000000
    29  H    3.065976   2.162957   1.764112   0.000000
    30  C    4.144867   1.501750   2.735795   2.743764   0.000000
    31  H    3.072595   1.096900   3.069742   2.516387   2.149557
    32  H    2.536145   1.096570   2.510302   3.070134   2.121046
    33  C    5.253030   2.510508   3.946326   3.490136   1.338890
    34  H    5.489562   2.889668   4.319829   3.401328   2.121573
    35  H    6.141898   3.397575   4.814795   4.541218   2.111355
    36  H    4.460663   2.217862   2.656445   3.187936   1.088280
                   31         32         33         34         35
    31  H    0.000000
    32  H    1.761741   0.000000
    33  C    2.641807   3.202584   0.000000
    34  H    2.689879   3.770338   1.085550   0.000000
    35  H    3.549931   3.874548   1.085710   1.856157   0.000000
    36  H    3.106541   2.538400   2.095015   2.992762   2.523798
                   36
    36  H    0.000000
 Stoichiometry    C12H24
 Framework group  C1[X(C12H24)]
 Deg. of freedom   102
 Full point group                 C1      NOp   1
 Largest Abelian subgroup         C1      NOp   1
 Largest concise Abelian subgroup C1      NOp   1
                         Standard orientation:                         
 ---------------------------------------------------------------------
 Center     Atomic      Atomic             Coordinates (Angstroms)
 Number     Number       Type             X           Y           Z
 ---------------------------------------------------------------------
      1          6           0       -6.772895   -0.426509    0.066680
      2          6           0       -5.523370    0.436960    0.134744
      3          1           0       -7.668564    0.194181    0.168809
      4          1           0       -6.780774   -1.169230    0.870826
      5          1           0       -6.833015   -0.954927   -0.890129
      6          6           0       -4.254009   -0.402791   -0.005726
      7          1           0       -5.510086    0.975473    1.089482
      8          1           0       -5.562345    1.189212   -0.661683
      9          6           0       -2.999349    0.469231    0.064915
     10          1           0       -4.273837   -0.941640   -0.960885
     11          1           0       -4.222525   -1.157020    0.790029
     12          6           0       -1.729109   -0.371024   -0.076883
     13          1           0       -2.979281    1.007110    1.020581
     14          1           0       -3.031172    1.223905   -0.730364
     15          6           0       -0.474284    0.500545   -0.003408
     16          1           0       -1.748432   -0.907379   -1.033409
     17          1           0       -1.698143   -1.126969    0.717207
     18          6           0        0.795756   -0.339707   -0.146910
     19          1           0       -0.454483    1.035852    0.953694
     20          1           0       -0.505564    1.257338   -0.796679
     21          6           0        2.050831    0.531271   -0.070362
     22          1           0        0.776714   -0.873356   -1.104954
     23          1           0        0.826091   -1.097895    0.645064
     24          6           0        3.321194   -0.309068   -0.215588
     25          1           0        2.070192    1.063794    0.888303
     26          1           0        2.020243    1.290236   -0.861582
     27          6           0        4.575737    0.563143   -0.136993
     28          1           0        3.298718   -0.842952   -1.174160
     29          1           0        3.349221   -1.070191    0.574527
     30          6           0        5.822409   -0.259326   -0.293852
     31          1           0        4.588142    1.106766    0.815640
     32          1           0        4.555237    1.316846   -0.933221
     33          6           0        6.768674   -0.375036    0.646264
     34          1           0        6.520281   -0.548561    1.688670
     35          1           0        7.820325   -0.297509    0.387832
     36          1           0        5.953560   -0.779225   -1.240878
 ---------------------------------------------------------------------
 Rotational constants (GHZ):      6.3984947      0.1581335      0.1570142
 Standard basis: def2SVP (5D, 7F)
 There are   300 symmetry adapted cartesian basis functions of A   symmetry.
 There are   288 symmetry adapted basis functions of A   symmetry.
   288 basis functions,   468 primitive gaussians,   300 cartesian basis functions
    48 alpha electrons       48 beta electrons
       nuclear repulsion energy       654.7397943525 Hartrees.
 NAtoms=   36 NActive=   36 NUniq=   36 SFac= 1.00D+00 NAtFMM=   60 NAOKFM=F Big=F
 Integral buffers will be    131072 words long.
 Raffenetti 2 integral format.
 Two-electron integral symmetry is turned on.
 One-electron integrals computed using PRISM.
   1 Symmetry operations used in ECPInt.
 ECPInt:  NShTT=   10440 NPrTT=   35208 LenC2=    8763 LenP2D=   21892.
 LDataN:  DoStor=T MaxTD1= 4 Len=   56
 NBasis=   288 RedAO= T EigKep=  7.63D-04  NBF=   288
 NBsUse=   288 1.00D-06 EigRej= -1.00D+00 NBFU=   288
 ExpMin= 1.22D-01 ExpMax= 1.24D+03 ExpMxC= 1.86D+02 IAcc=3 IRadAn=         7 AccDes= 0.00D+00
 Harris functional with IExCor= 1009 and IRadAn=       7 diagonalized for initial guess.
 HarFok:  IExCor= 1009 AccDes= 0.00D+00 IRadAn=         7 IDoV= 1 UseB2=F ITyADJ=14
 ICtDFT=  3500011 ScaDFX=  1.000000  1.000000  1.000000  1.000000
 FoFCou: FMM=F IPFlag=           0 FMFlag=      100000 FMFlg1=           0
         NFxFlg=           0 DoJE=T BraDBF=F KetDBF=T FulRan=T
         wScrn=  0.000000 ICntrl=     500 IOpCl=  0 I1Cent=   200000004 NGrid=           0
         NMat0=    1 NMatS0=      1 NMatT0=    0 NMatD0=    1 NMtDS0=    0 NMtDT0=    0
 Petite list used in FoFCou.
 Keep R1 ints in memory in canonical form, NReq=879895090.
 Requested convergence on RMS density matrix=1.00D-08 within 128 cycles.
 Requested convergence on MAX density matrix=1.00D-06.
 Requested convergence on             energy=1.00D-06.
 No special actions if energy rises.
 Integral accuracy reduced to 1.0D-05 until final iterations.
 Initial convergence to 1.0D-05 achieved.  Increase integral accuracy.
 SCF Done:  E(RM06) =  -470.934864045     A.U. after   12 cycles
            NFock= 12  Conv=0.77D-08     -V/T= 2.0125

 **********************************************************************

            Population analysis using the SCF density.

 **********************************************************************

 Orbital symmetries:
       Occupied  (A) (A) (A) (A) (A) (A) (A) (A) (A) (A) (A) (A)
                 (A) (A) (A) (A) (A) (A) (A) (A) (A) (A) (A) (A)
                 (A) (A) (A) (A) (A) (A) (A) (A) (A) (A) (A) (A)
                 (A) (A) (A) (A) (A) (A) (A) (A) (A) (A) (A) (A)
       Virtual   (A) (A) (A) (A) (A) (A) (A) (A) (A) (A) (A) (A)
                 (A) (A) (A) (A) (A) (A) (A) (A) (A) (A) (A) (A)
                 (A) (A) (A) (A) (A) (A) (A) (A) (A) (A) (A) (A)
                 (A) (A) (A) (A) (A) (A) (A) (A) (A) (A) (A) (A)
                 (A) (A) (A) (A) (A) (A) (A) (A) (A) (A) (A) (A)
                 (A) (A) (A) (A) (A) (A) (A) (A) (A) (A) (A) (A)
                 (A) (A) (A) (A) (A) (A) (A) (A) (A) (A) (A) (A)
                 (A) (A) (A) (A) (A) (A) (A) (A) (A) (A) (A) (A)
                 (A) (A) (A) (A) (A) (A) (A) (A) (A) (A) (A) (A)
                 (A) (A) (A) (A) (A) (A) (A) (A) (A) (A) (A) (A)
                 (A) (A) (A) (A) (A) (A) (A) (A) (A) (A) (A) (A)
                 (A) (A) (A) (A) (A) (A) (A) (A) (A) (A) (A) (A)
                 (A) (A) (A) (A) (A) (A) (A) (A) (A) (A) (A) (A)
                 (A) (A) (A) (A) (A) (A) (A) (A) (A) (A) (A) (A)
                 (A) (A) (A) (A) (A) (A) (A) (A) (A) (A) (A) (A)
                 (A) (A) (A) (A) (A) (A) (A) (A) (A) (A) (A) (A)
                 (A) (A) (A) (A) (A) (A) (A) (A) (A) (A) (A) (A)
                 (A) (A) (A) (A) (A) (A) (A) (A) (A) (A) (A) (A)
                 (A) (A) (A) (A) (A) (A) (A) (A) (A) (A) (A) (A)
                 (A) (A) (A) (A) (A) (A) (A) (A) (A) (A) (A) (A)
 The electronic state is 1-A.
 Alpha  occ. eigenvalues --  -10.24930 -10.24559 -10.24043 -10.23844 -10.23750
 Alpha  occ. eigenvalues --  -10.23737 -10.23692 -10.23656 -10.23633 -10.23627
 Alpha  occ. eigenvalues --  -10.23527 -10.23198  -0.82187  -0.81036  -0.79032
 Alpha  occ. eigenvalues --   -0.76317  -0.73039  -0.69224  -0.64917  -0.60628
 Alpha  occ. eigenvalues --   -0.58406  -0.57679  -0.57488  -0.55215  -0.49724
 Alpha  occ. eigenvalues --   -0.48555  -0.46907  -0.45258  -0.44585  -0.43729
 Alpha  occ. eigenvalues --   -0.43417  -0.42083  -0.40991  -0.40378  -0.38979
 Alpha  occ. eigenvalues --   -0.38573  -0.37055  -0.36313  -0.35141  -0.35037
 Alpha  occ. eigenvalues --   -0.34333  -0.34026  -0.33582  -0.33372  -0.33040
 Alpha  occ. eigenvalues --   -0.32915  -0.30507  -0.22843
 Alpha virt. eigenvalues --   -0.01453   0.06303   0.07005   0.07988   0.08131
 Alpha virt. eigenvalues --    0.08769   0.09298   0.09706   0.10245   0.11240
 Alpha virt. eigenvalues --    0.11436   0.12768   0.13411   0.13794   0.14886
 Alpha virt. eigenvalues --    0.15504   0.16008   0.16088   0.16251   0.16930
 Alpha virt. eigenvalues --    0.17194   0.18079   0.18492   0.19543   0.19780
 Alpha virt. eigenvalues --    0.20498   0.20770   0.22676   0.23149   0.23718
 Alpha virt. eigenvalues --    0.25752   0.26536   0.28245   0.32195   0.32893
 Alpha virt. eigenvalues --    0.35108   0.38441   0.40797   0.41521   0.42032
 Alpha virt. eigenvalues --    0.42570   0.43250   0.43742   0.43837   0.44983
 Alpha virt. eigenvalues --    0.45510   0.48258   0.48668   0.49683   0.50655
 Alpha virt. eigenvalues --    0.52097   0.52537   0.53678   0.54464   0.58420
 Alpha virt. eigenvalues --    0.58800   0.61150   0.61473   0.61938   0.62143
 Alpha virt. eigenvalues --    0.62184   0.62560   0.62861   0.62976   0.63284
 Alpha virt. eigenvalues --    0.64040   0.64352   0.64632   0.65121   0.65870
 Alpha virt. eigenvalues --    0.65963   0.66182   0.66289   0.66875   0.67208
 Alpha virt. eigenvalues --    0.67321   0.67591   0.68638   0.68700   0.69014
 Alpha virt. eigenvalues --    0.69628   0.69845   0.70617   0.70891   0.70959
 Alpha virt. eigenvalues --    0.71680   0.71700   0.72089   0.72961   0.73355
 Alpha virt. eigenvalues --    0.77111   0.79715   0.82235   0.85674   0.88744
 Alpha virt. eigenvalues --    0.91456   0.94882   0.98352   0.98887   1.00534
 Alpha virt. eigenvalues --    1.01457   1.01925   1.02458   1.02995   1.03987
 Alpha virt. eigenvalues --    1.05556   1.07634   1.09448   1.17303   1.19156
 Alpha virt. eigenvalues --    1.22774   1.23980   1.26941   1.31479   1.31627
 Alpha virt. eigenvalues --    1.32919   1.33549   1.34665   1.35701   1.35931
 Alpha virt. eigenvalues --    1.37312   1.37834   1.38006   1.40770   1.42445
 Alpha virt. eigenvalues --    1.50536   1.52655   1.57253   1.59541   1.61802
 Alpha virt. eigenvalues --    1.64816   1.65584   1.66444   1.66602   1.70804
 Alpha virt. eigenvalues --    1.71358   1.72089   1.73484   1.74045   1.74157
 Alpha virt. eigenvalues --    1.74732   1.75866   1.76587   1.76726   1.77330
 Alpha virt. eigenvalues --    1.78296   1.78439   1.79139   1.79994   1.80291
 Alpha virt. eigenvalues --    1.80444   1.80649   1.82049   1.82252   1.82488
 Alpha virt. eigenvalues --    1.83502   1.83839   1.84500   1.84842   1.85738
 Alpha virt. eigenvalues --    1.86952   1.88201   1.89418   1.90566   1.91402
 Alpha virt. eigenvalues --    1.91570   1.92341   1.92482   1.93767   1.94687
 Alpha virt. eigenvalues --    1.96411   1.98617   2.00201   2.01019   2.03533
 Alpha virt. eigenvalues --    2.05949   2.06629   2.09566   2.10656   2.11675
 Alpha virt. eigenvalues --    2.14509   2.17502   2.19703   2.20892   2.24956
 Alpha virt. eigenvalues --    2.25984   2.28391   2.31320   2.32282   2.37034
 Alpha virt. eigenvalues --    2.38461   2.40265   2.41367   2.41662   2.41923
 Alpha virt. eigenvalues --    2.42466   2.43211   2.44784   2.45572   2.46855
 Alpha virt. eigenvalues --    2.49985   2.50798   2.51602   2.51822   2.56166
 Alpha virt. eigenvalues --    2.56626   2.57468   2.57575   2.59657   2.59797
 Alpha virt. eigenvalues --    2.60497   2.61776   2.63403   2.65355   2.72040
 Alpha virt. eigenvalues --    2.72668   2.75111   2.78681   2.81966   2.82210
 Alpha virt. eigenvalues --    2.82808   2.84181   2.85740   2.86251   2.89461
 Alpha virt. eigenvalues --    2.90117   2.91253   2.92448   2.92924   2.95594
 Alpha virt. eigenvalues --    2.96894   2.97813   2.99439   2.99857   3.01368
 Alpha virt. eigenvalues --    3.03289   3.04669   3.05175   3.07361   3.14459
          Condensed to atoms (all electrons):
               1          2          3          4          5          6
     1  C    4.571422   0.421763   0.377953   0.394064   0.394025  -0.058832
     2  C    0.421763   4.674085  -0.014015  -0.023346  -0.023340   0.398560
     3  H    0.377953  -0.014015   0.656507  -0.024839  -0.024843   0.008284
     4  H    0.394064  -0.023346  -0.024839   0.653229  -0.027915  -0.008667
     5  H    0.394025  -0.023340  -0.024843  -0.027915   0.653315  -0.008666
     6  C   -0.058832   0.398560   0.008284  -0.008667  -0.008666   4.752159
     7  H   -0.023839   0.375240  -0.006693  -0.010179   0.008806  -0.022823
     8  H   -0.023808   0.375169  -0.006705   0.008804  -0.010167  -0.022763
     9  C    0.009388  -0.046175  -0.000555   0.000467   0.000469   0.364219
    10  H   -0.004397  -0.027306  -0.000047  -0.001941   0.007553   0.374667
    11  H   -0.004379  -0.027367  -0.000044   0.007556  -0.001947   0.374794
    12  C   -0.000510   0.008366   0.000016  -0.000008  -0.000008  -0.043092
    13  H    0.000294  -0.006642   0.000008  -0.000053   0.000024  -0.022352
    14  H    0.000299  -0.006630   0.000008   0.000024  -0.000053  -0.022327
    15  C    0.000009  -0.000440   0.000000   0.000000   0.000000   0.008159
    16  H    0.000007   0.000318   0.000000   0.000004  -0.000010  -0.007046
    17  H    0.000007   0.000326   0.000000  -0.000010   0.000004  -0.007027
    18  C    0.000000   0.000008   0.000000   0.000000   0.000000  -0.000458
    19  H    0.000000   0.000003   0.000000   0.000000   0.000000   0.000376
    20  H    0.000000   0.000003   0.000000   0.000000   0.000000   0.000386
    21  C    0.000000   0.000000   0.000000   0.000000   0.000000   0.000008
    22  H    0.000000   0.000000   0.000000   0.000000   0.000000   0.000003
    23  H    0.000000   0.000000   0.000000   0.000000   0.000000   0.000004
    24  C    0.000000   0.000000   0.000000   0.000000   0.000000   0.000000
    25  H    0.000000   0.000000   0.000000   0.000000   0.000000   0.000000
    26  H    0.000000   0.000000   0.000000   0.000000   0.000000   0.000000
    27  C    0.000000   0.000000   0.000000   0.000000   0.000000   0.000000
    28  H    0.000000   0.000000   0.000000   0.000000   0.000000   0.000000
    29  H    0.000000   0.000000   0.000000   0.000000   0.000000   0.000000
    30  C    0.000000   0.000000   0.000000   0.000000   0.000000   0.000000
    31  H    0.000000   0.000000   0.000000   0.000000   0.000000   0.000000
    32  H    0.000000   0.000000   0.000000   0.000000   0.000000   0.000000
    33  C    0.000000   0.000000   0.000000   0.000000   0.000000   0.000000
    34  H    0.000000   0.000000   0.000000   0.000000   0.000000   0.000000
    35  H    0.000000   0.000000   0.000000   0.000000   0.000000   0.000000
    36  H    0.000000   0.000000   0.000000   0.000000   0.000000   0.000000
               7          8          9         10         11         12
     1  C   -0.023839  -0.023808   0.009388  -0.004397  -0.004379  -0.000510
     2  C    0.375240   0.375169  -0.046175  -0.027306  -0.027367   0.008366
     3  H   -0.006693  -0.006705  -0.000555  -0.000047  -0.000044   0.000016
     4  H   -0.010179   0.008804   0.000467  -0.001941   0.007556  -0.000008
     5  H    0.008806  -0.010167   0.000469   0.007553  -0.001947  -0.000008
     6  C   -0.022823  -0.022763   0.364219   0.374667   0.374794  -0.043092
     7  H    0.691056  -0.034884  -0.007349   0.009506  -0.011839   0.000362
     8  H   -0.034884   0.691122  -0.007365  -0.011879   0.009505   0.000357
     9  C   -0.007349  -0.007365   4.750071  -0.020955  -0.020972   0.363974
    10  H    0.009506  -0.011879  -0.020955   0.696373  -0.037167  -0.007310
    11  H   -0.011839   0.009505  -0.020972  -0.037167   0.696218  -0.007329
    12  C    0.000362   0.000357   0.363974  -0.007310  -0.007329   4.748198
    13  H    0.007904  -0.002031   0.372263   0.009445  -0.011955  -0.021272
    14  H   -0.002039   0.007902   0.372145  -0.011931   0.009446  -0.021191
    15  C    0.000004   0.000004  -0.044140   0.000436   0.000430   0.366156
    16  H    0.000015  -0.000040  -0.021649   0.007737  -0.002009   0.371733
    17  H   -0.000040   0.000015  -0.021717  -0.002021   0.007744   0.371894
    18  C    0.000000   0.000000   0.008369   0.000001   0.000001  -0.045084
    19  H   -0.000013   0.000005  -0.007122   0.000014  -0.000040  -0.021306
    20  H    0.000005  -0.000012  -0.007117  -0.000040   0.000014  -0.021257
    21  C    0.000000   0.000000  -0.000460   0.000000   0.000000   0.008362
    22  H    0.000000   0.000000   0.000391  -0.000012   0.000005  -0.007215
    23  H    0.000000   0.000000   0.000389   0.000005  -0.000012  -0.007068
    24  C    0.000000   0.000000   0.000008   0.000000   0.000000  -0.000443
    25  H    0.000000   0.000000   0.000003   0.000000   0.000000   0.000373
    26  H    0.000000   0.000000   0.000002   0.000000   0.000000   0.000398
    27  C    0.000000   0.000000   0.000000   0.000000   0.000000   0.000007
    28  H    0.000000   0.000000   0.000000   0.000000   0.000000   0.000001
    29  H    0.000000   0.000000   0.000000   0.000000   0.000000  -0.000002
    30  C    0.000000   0.000000   0.000000   0.000000   0.000000   0.000000
    31  H    0.000000   0.000000   0.000000   0.000000   0.000000   0.000000
    32  H    0.000000   0.000000   0.000000   0.000000   0.000000   0.000000
    33  C    0.000000   0.000000   0.000000   0.000000   0.000000   0.000000
    34  H    0.000000   0.000000   0.000000   0.000000   0.000000   0.000000
    35  H    0.000000   0.000000   0.000000   0.000000   0.000000   0.000000
    36  H    0.000000   0.000000   0.000000   0.000000   0.000000   0.000000
              13         14         15         16         17         18
     1  C    0.000294   0.000299   0.000009   0.000007   0.000007   0.000000
     2  C   -0.006642  -0.006630  -0.000440   0.000318   0.000326   0.000008
     3  H    0.000008   0.000008   0.000000   0.000000   0.000000   0.000000
     4  H   -0.000053   0.000024   0.000000   0.000004  -0.000010   0.000000
     5  H    0.000024  -0.000053   0.000000  -0.000010   0.000004   0.000000
     6  C   -0.022352  -0.022327   0.008159  -0.007046  -0.007027  -0.000458
     7  H    0.007904  -0.002039   0.000004   0.000015  -0.000040   0.000000
     8  H   -0.002031   0.007902   0.000004  -0.000040   0.000015   0.000000
     9  C    0.372263   0.372145  -0.044140  -0.021649  -0.021717   0.008369
    10  H    0.009445  -0.011931   0.000436   0.007737  -0.002021   0.000001
    11  H   -0.011955   0.009446   0.000430  -0.002009   0.007744   0.000001
    12  C   -0.021272  -0.021191   0.366156   0.371733   0.371894  -0.045084
    13  H    0.696081  -0.036336  -0.007208   0.009383  -0.011862   0.000401
    14  H   -0.036336   0.696241  -0.007235  -0.011931   0.009381   0.000392
    15  C   -0.007208  -0.007235   4.746509  -0.021144  -0.021148   0.364960
    16  H    0.009383  -0.011931  -0.021144   0.696258  -0.036216  -0.007213
    17  H   -0.011862   0.009381  -0.021148  -0.036216   0.695948  -0.007233
    18  C    0.000401   0.000392   0.364960  -0.007213  -0.007233   4.748342
    19  H    0.007787  -0.001995   0.371707   0.009376  -0.011924  -0.021333
    20  H   -0.002008   0.007784   0.371585  -0.011896   0.009378  -0.021362
    21  C    0.000003   0.000003  -0.043690   0.000395   0.000394   0.362141
    22  H    0.000014  -0.000040  -0.020819   0.007793  -0.001992   0.371887
    23  H   -0.000040   0.000014  -0.021177  -0.002005   0.007789   0.372213
    24  C    0.000000   0.000000   0.007965   0.000004   0.000002  -0.041557
    25  H   -0.000012   0.000005  -0.006891   0.000014  -0.000039  -0.021306
    26  H    0.000005  -0.000012  -0.007290  -0.000040   0.000014  -0.020835
    27  C    0.000000   0.000000  -0.000434   0.000000   0.000000   0.008134
    28  H    0.000000   0.000000   0.000446  -0.000012   0.000005  -0.007243
    29  H    0.000000   0.000000   0.000388   0.000005  -0.000012  -0.007092
    30  C    0.000000   0.000000   0.000009   0.000000   0.000000  -0.000530
    31  H    0.000000   0.000000  -0.000007   0.000000   0.000000   0.000465
    32  H    0.000000   0.000000  -0.000011   0.000000   0.000000   0.000448
    33  C    0.000000   0.000000   0.000000   0.000000   0.000000   0.000012
    34  H    0.000000   0.000000   0.000000   0.000000   0.000000   0.000004
    35  H    0.000000   0.000000   0.000000   0.000000   0.000000   0.000000
    36  H    0.000000   0.000000   0.000000   0.000000   0.000000   0.000024
              19         20         21         22         23         24
     1  C    0.000000   0.000000   0.000000   0.000000   0.000000   0.000000
     2  C    0.000003   0.000003   0.000000   0.000000   0.000000   0.000000
     3  H    0.000000   0.000000   0.000000   0.000000   0.000000   0.000000
     4  H    0.000000   0.000000   0.000000   0.000000   0.000000   0.000000
     5  H    0.000000   0.000000   0.000000   0.000000   0.000000   0.000000
     6  C    0.000376   0.000386   0.000008   0.000003   0.000004   0.000000
     7  H   -0.000013   0.000005   0.000000   0.000000   0.000000   0.000000
     8  H    0.000005  -0.000012   0.000000   0.000000   0.000000   0.000000
     9  C   -0.007122  -0.007117  -0.000460   0.000391   0.000389   0.000008
    10  H    0.000014  -0.000040   0.000000  -0.000012   0.000005   0.000000
    11  H   -0.000040   0.000014   0.000000   0.000005  -0.000012   0.000000
    12  C   -0.021306  -0.021257   0.008362  -0.007215  -0.007068  -0.000443
    13  H    0.007787  -0.002008   0.000003   0.000014  -0.000040   0.000000
    14  H   -0.001995   0.007784   0.000003  -0.000040   0.000014   0.000000
    15  C    0.371707   0.371585  -0.043690  -0.020819  -0.021177   0.007965
    16  H    0.009376  -0.011896   0.000395   0.007793  -0.002005   0.000004
    17  H   -0.011924   0.009378   0.000394  -0.001992   0.007789   0.000002
    18  C   -0.021333  -0.021362   0.362141   0.371887   0.372213  -0.041557
    19  H    0.695974  -0.036182  -0.007248   0.009365  -0.011849   0.000416
    20  H   -0.036182   0.696437  -0.007230  -0.011927   0.009361   0.000376
    21  C   -0.007248  -0.007230   4.764711  -0.021748  -0.021756   0.352484
    22  H    0.009365  -0.011927  -0.021748   0.695545  -0.036118  -0.007074
    23  H   -0.011849   0.009361  -0.021756  -0.036118   0.695036  -0.007057
    24  C    0.000416   0.000376   0.352484  -0.007074  -0.007057   4.793165
    25  H    0.007758  -0.002003   0.373450   0.009335  -0.011944  -0.023416
    26  H   -0.001983   0.007755   0.370820  -0.011822   0.009369  -0.022165
    27  C    0.000002   0.000004  -0.042143   0.000298   0.000342   0.363912
    28  H    0.000012  -0.000040  -0.018338   0.007680  -0.001956   0.372481
    29  H   -0.000037   0.000012  -0.024057  -0.001979   0.007523   0.379563
    30  C    0.000000   0.000000   0.009820   0.000016  -0.000001  -0.066556
    31  H   -0.000012   0.000006  -0.006708   0.000014  -0.000020  -0.020453
    32  H    0.000005  -0.000011  -0.010794  -0.000042   0.000011  -0.015052
    33  C    0.000000   0.000000  -0.000605   0.000001  -0.000004   0.004436
    34  H    0.000000   0.000000  -0.000185   0.000000   0.000001   0.001220
    35  H    0.000000   0.000000   0.000027   0.000000   0.000000  -0.000387
    36  H    0.000000   0.000000  -0.000318  -0.000008   0.000004   0.000113
              25         26         27         28         29         30
     1  C    0.000000   0.000000   0.000000   0.000000   0.000000   0.000000
     2  C    0.000000   0.000000   0.000000   0.000000   0.000000   0.000000
     3  H    0.000000   0.000000   0.000000   0.000000   0.000000   0.000000
     4  H    0.000000   0.000000   0.000000   0.000000   0.000000   0.000000
     5  H    0.000000   0.000000   0.000000   0.000000   0.000000   0.000000
     6  C    0.000000   0.000000   0.000000   0.000000   0.000000   0.000000
     7  H    0.000000   0.000000   0.000000   0.000000   0.000000   0.000000
     8  H    0.000000   0.000000   0.000000   0.000000   0.000000   0.000000
     9  C    0.000003   0.000002   0.000000   0.000000   0.000000   0.000000
    10  H    0.000000   0.000000   0.000000   0.000000   0.000000   0.000000
    11  H    0.000000   0.000000   0.000000   0.000000   0.000000   0.000000
    12  C    0.000373   0.000398   0.000007   0.000001  -0.000002   0.000000
    13  H   -0.000012   0.000005   0.000000   0.000000   0.000000   0.000000
    14  H    0.000005  -0.000012   0.000000   0.000000   0.000000   0.000000
    15  C   -0.006891  -0.007290  -0.000434   0.000446   0.000388   0.000009
    16  H    0.000014  -0.000040   0.000000  -0.000012   0.000005   0.000000
    17  H   -0.000039   0.000014   0.000000   0.000005  -0.000012   0.000000
    18  C   -0.021306  -0.020835   0.008134  -0.007243  -0.007092  -0.000530
    19  H    0.007758  -0.001983   0.000002   0.000012  -0.000037   0.000000
    20  H   -0.002003   0.007755   0.000004  -0.000040   0.000012   0.000000
    21  C    0.373450   0.370820  -0.042143  -0.018338  -0.024057   0.009820
    22  H    0.009335  -0.011822   0.000298   0.007680  -0.001979   0.000016
    23  H   -0.011944   0.009369   0.000342  -0.001956   0.007523  -0.000001
    24  C   -0.023416  -0.022165   0.363912   0.372481   0.379563  -0.066556
    25  H    0.694552  -0.036359  -0.006768   0.009285  -0.011711   0.000313
    26  H   -0.036359   0.697301  -0.006348  -0.011974   0.009363   0.000489
    27  C   -0.006768  -0.006348   4.701157  -0.026483  -0.030369   0.388285
    28  H    0.009285  -0.011974  -0.026483   0.692403  -0.037038  -0.006424
    29  H   -0.011711   0.009363  -0.030369  -0.037038   0.688149   0.002564
    30  C    0.000313   0.000489   0.388285  -0.006424   0.002564   4.820242
    31  H    0.007330  -0.002041   0.375877   0.009247  -0.011710  -0.027641
    32  H   -0.001755   0.008216   0.369497  -0.011653   0.009396  -0.010214
    33  C    0.000037  -0.000023  -0.062712   0.000039   0.000151   0.651254
    34  H   -0.000021   0.000005  -0.016829   0.000028   0.000447  -0.035240
    35  H    0.000001  -0.000001   0.009819   0.000003  -0.000061  -0.019208
    36  H    0.000009  -0.000035  -0.049831   0.006184  -0.001860   0.389065
              31         32         33         34         35         36
     1  C    0.000000   0.000000   0.000000   0.000000   0.000000   0.000000
     2  C    0.000000   0.000000   0.000000   0.000000   0.000000   0.000000
     3  H    0.000000   0.000000   0.000000   0.000000   0.000000   0.000000
     4  H    0.000000   0.000000   0.000000   0.000000   0.000000   0.000000
     5  H    0.000000   0.000000   0.000000   0.000000   0.000000   0.000000
     6  C    0.000000   0.000000   0.000000   0.000000   0.000000   0.000000
     7  H    0.000000   0.000000   0.000000   0.000000   0.000000   0.000000
     8  H    0.000000   0.000000   0.000000   0.000000   0.000000   0.000000
     9  C    0.000000   0.000000   0.000000   0.000000   0.000000   0.000000
    10  H    0.000000   0.000000   0.000000   0.000000   0.000000   0.000000
    11  H    0.000000   0.000000   0.000000   0.000000   0.000000   0.000000
    12  C    0.000000   0.000000   0.000000   0.000000   0.000000   0.000000
    13  H    0.000000   0.000000   0.000000   0.000000   0.000000   0.000000
    14  H    0.000000   0.000000   0.000000   0.000000   0.000000   0.000000
    15  C   -0.000007  -0.000011   0.000000   0.000000   0.000000   0.000000
    16  H    0.000000   0.000000   0.000000   0.000000   0.000000   0.000000
    17  H    0.000000   0.000000   0.000000   0.000000   0.000000   0.000000
    18  C    0.000465   0.000448   0.000012   0.000004   0.000000   0.000024
    19  H   -0.000012   0.000005   0.000000   0.000000   0.000000   0.000000
    20  H    0.000006  -0.000011   0.000000   0.000000   0.000000   0.000000
    21  C   -0.006708  -0.010794  -0.000605  -0.000185   0.000027  -0.000318
    22  H    0.000014  -0.000042   0.000001   0.000000   0.000000  -0.000008
    23  H   -0.000020   0.000011  -0.000004   0.000001   0.000000   0.000004
    24  C   -0.020453  -0.015052   0.004436   0.001220  -0.000387   0.000113
    25  H    0.007330  -0.001755   0.000037  -0.000021   0.000001   0.000009
    26  H   -0.002041   0.008216  -0.000023   0.000005  -0.000001  -0.000035
    27  C    0.375877   0.369497  -0.062712  -0.016829   0.009819  -0.049831
    28  H    0.009247  -0.011653   0.000039   0.000028   0.000003   0.006184
    29  H   -0.011710   0.009396   0.000151   0.000447  -0.000061  -0.001860
    30  C   -0.027641  -0.010214   0.651254  -0.035240  -0.019208   0.389065
    31  H    0.681685  -0.036462  -0.006057   0.005792  -0.000380   0.008904
    32  H   -0.036462   0.663776   0.001192  -0.000028  -0.000469  -0.009928
    33  C   -0.006057   0.001192   4.795768   0.394900   0.380875  -0.043224
    34  H    0.005792  -0.000028   0.394900   0.640743  -0.049499   0.009771
    35  H   -0.000380  -0.000469   0.380875  -0.049499   0.639629  -0.013488
    36  H    0.008904  -0.009928  -0.043224   0.009771  -0.013488   0.666414
 Mulliken charges:
               1
     1  C   -0.053468
     2  C   -0.078581
     3  H    0.034966
     4  H    0.032809
     5  H    0.032754
     6  C   -0.057568
     7  H    0.026801
     8  H    0.026770
     9  C   -0.036583
    10  H    0.019269
    11  H    0.019348
    12  C   -0.037102
    13  H    0.018158
    14  H    0.018075
    15  C   -0.037136
    16  H    0.018165
    17  H    0.018339
    18  C   -0.036556
    19  H    0.018242
    20  H    0.017979
    21  C   -0.037338
    22  H    0.018447
    23  H    0.018945
    24  C   -0.071985
    25  H    0.019758
    26  H    0.017190
    27  C    0.024584
    28  H    0.023344
    29  H    0.028367
    30  C   -0.096242
    31  H    0.022171
    32  H    0.043879
    33  C   -0.116040
    34  H    0.048893
    35  H    0.053139
    36  H    0.038204
 Sum of Mulliken charges =   0.00000
 Mulliken charges with hydrogens summed into heavy atoms:
               1
     1  C    0.047061
     2  C   -0.025010
     6  C   -0.018951
     9  C   -0.000350
    12  C   -0.000598
    15  C   -0.000914
    18  C    0.000836
    21  C   -0.000389
    24  C   -0.020273
    27  C    0.090633
    30  C   -0.058037
    33  C   -0.014008
 Electronic spatial extent (au):  <R**2>=           6921.7946
 Charge=              0.0000 electrons
 Dipole moment (field-independent basis, Debye):
    X=             -0.4816    Y=              0.1708    Z=             -0.1890  Tot=              0.5448
 Quadrupole moment (field-independent basis, Debye-Ang):
   XX=            -86.0488   YY=            -81.5913   ZZ=            -78.0071
   XY=              0.2546   XZ=             -0.9719   YZ=             -0.2797
 Traceless Quadrupole moment (field-independent basis, Debye-Ang):
   XX=             -4.1664   YY=              0.2911   ZZ=              3.8753
   XY=              0.2546   XZ=             -0.9719   YZ=             -0.2797
 Octapole moment (field-independent basis, Debye-Ang**2):
  XXX=            -27.1292  YYY=              1.7370  ZZZ=              0.2714  XYY=             -6.3630
  XXY=              6.6262  XXZ=             -4.8073  XZZ=              1.3825  YZZ=             -1.0758
  YYZ=             -0.8488  XYZ=              0.1162
 Hexadecapole moment (field-independent basis, Debye-Ang**3):
 XXXX=          -9507.8610 YYYY=           -275.3968 ZZZZ=           -190.9930 XXXY=            -18.5343
 XXXZ=            -26.0785 YYYX=             10.5696 YYYZ=             -2.0982 ZZZX=              2.7204
 ZZZY=             -0.2711 XXYY=          -1635.0356 XXZZ=          -1532.7794 YYZZ=            -72.4376
 XXYZ=             -2.2982 YYXZ=             -5.7669 ZZXY=             -4.8747
 N-N= 6.547397943525D+02 E-N=-2.395802908019D+03  KE= 4.651019761618D+02
   1 Symmetry operations used in ECPInt.
 ECPInt:  NShTT=   10440 NPrTT=   35208 LenC2=    8763 LenP2D=   21892.
 LDataN:  DoStor=T MaxTD1= 5 Len=  102
 Calling FoFJK, ICntrl=      2127 FMM=F ISym2X=0 I1Cent= 0 IOpClX= 0 NMat=1 NMatS=1 NMatT=0.
 ***** Axes restored to original set *****
 -------------------------------------------------------------------
 Center     Atomic                   Forces (Hartrees/Bohr)
 Number     Number              X              Y              Z
 -------------------------------------------------------------------
      1        6           0.005903564    0.000006453    0.008758831
      2        6          -0.015550206   -0.000016260   -0.013128998
      3        1           0.003364640   -0.000001187   -0.004687232
      4        1          -0.002698903    0.003584491   -0.002779794
      5        1          -0.002700586   -0.003591461   -0.002780531
      6        6           0.021483284    0.000036425    0.014428813
      7        1           0.003037341    0.003846832    0.004288180
      8        1           0.003049620   -0.003840800    0.004285151
      9        6          -0.021519272   -0.000059073   -0.014643164
     10        1          -0.003901460   -0.004384206   -0.002727910
     11        1          -0.003907043    0.004369676   -0.002736229
     12        6           0.021607046    0.000098361    0.014610633
     13        1           0.003874045    0.004300231    0.002626946
     14        1           0.003902635   -0.004279270    0.002628625
     15        6          -0.021555322   -0.000104412   -0.014688328
     16        1          -0.003901797   -0.004321167   -0.002620162
     17        1          -0.003915733    0.004283127   -0.002643571
     18        6           0.021619480    0.000146287    0.014695232
     19        1           0.003870688    0.004320957    0.002635180
     20        1           0.003919474   -0.004280312    0.002648845
     21        6          -0.021520171   -0.000551753   -0.015217410
     22        1          -0.003867369   -0.004330588   -0.002618444
     23        1          -0.003907879    0.004261310   -0.002623435
     24        6           0.024574612   -0.002001819    0.008729888
     25        1           0.003801365    0.004352568    0.002683025
     26        1           0.004005072   -0.004385685    0.002721123
     27        6          -0.027227424    0.013062437   -0.031645209
     28        1          -0.003820740   -0.004138708   -0.002371636
     29        1          -0.003389602    0.003633485   -0.001248044
     30        6           0.015859201    0.002284767    0.003208426
     31        1           0.001421019    0.003948310    0.002997587
     32        1           0.001307120   -0.004962327    0.003260771
     33        6          -0.003475978   -0.001478421    0.000799641
     34        1           0.024449982    0.010506680    0.014074336
     35        1          -0.029009027    0.000188558   -0.007913819
     36        1           0.004818326   -0.020503509    0.016992682
 -------------------------------------------------------------------
 Cartesian Forces:  Max     0.031645209 RMS     0.010012433
 -----------------------------------------------------------------------------------------------
                       Internal Coordinate Forces (Hartree/Bohr or radian)
  Cent   Atom   N1       Length/X         N2         Alpha/Y        N3         Beta/Z          J
 -----------------------------------------------------------------------------------------------
      1  C 
      2  C        1   0.001489(     1)
      3  H        1   0.004780(     2)      2   0.006685(    36)
      4  H        1   0.005152(     3)      2   0.002069(    37)      3  -0.001092(    70)     0
      5  H        1   0.005159(     4)      2   0.002064(    38)      3   0.001087(    71)     0
      6  C        2  -0.002991(     5)      1   0.010417(    39)      3  -0.000006(    72)     0
      7  H        2   0.006004(     6)      1   0.005085(    40)      3  -0.001129(    73)     0
      8  H        2   0.006005(     7)      1   0.005078(    41)      3   0.001149(    74)     0
      9  C        6  -0.002943(     8)      2   0.011583(    42)      1  -0.000045(    75)     0
     10  H        6   0.006353(     9)      2   0.001110(    43)      1  -0.002174(    76)     0
     11  H        6   0.006350(    10)      2   0.001109(    44)      1   0.002175(    77)     0
     12  C        9  -0.002899(    11)      6   0.011724(    45)      2  -0.000019(    78)     0
     13  H        9   0.006237(    12)      6   0.001219(    46)      2  -0.002100(    79)     0
     14  H        9   0.006240(    13)      6   0.001199(    47)      2   0.002126(    80)     0
     15  C       12  -0.002902(    14)      9   0.011711(    48)      6  -0.000050(    81)     0
     16  H       12   0.006263(    15)      9   0.001272(    49)      6  -0.002101(    82)     0
     17  H       12   0.006256(    16)      9   0.001264(    50)      6   0.002099(    83)     0
     18  C       15  -0.002857(    17)     12   0.011751(    51)      9  -0.000028(    84)     0
     19  H       15   0.006251(    18)     12   0.001244(    52)      9  -0.002101(    85)     0
     20  H       15   0.006259(    19)     12   0.001210(    53)      9   0.002127(    86)     0
     21  C       18  -0.002950(    20)     15   0.011807(    54)     12   0.000007(    87)     0
     22  H       18   0.006250(    21)     15   0.001226(    55)     12  -0.002099(    88)     0
     23  H       18   0.006231(    22)     15   0.001273(    56)     12   0.002053(    89)     0
     24  C       21  -0.002606(    23)     18   0.011995(    57)     15  -0.000239(    90)     0
     25  H       21   0.006255(    24)     18   0.001366(    58)     15  -0.001982(    91)     0
     26  H       21   0.006413(    25)     18   0.001233(    59)     15   0.002134(    92)     0
     27  C       24   0.001751(    26)     21   0.013718(    60)     18   0.001649(    93)     0
     28  H       24   0.005990(    27)     21   0.001552(    61)     18  -0.001867(    94)     0
     29  H       24   0.005008(    28)     21   0.002229(    62)     18   0.000220(    95)     0
     30  C       27  -0.001688(    29)     24   0.024922(    63)     21   0.002500(    96)     0
     31  H       27   0.004863(    30)     24   0.003062(    64)     21   0.001706(    97)     0
     32  H       27   0.005742(    31)     24   0.002834(    65)     21  -0.002841(    98)     0
     33  C       30   0.013771(    32)     27   0.003349(    66)     24  -0.051907(    99)     0
     34  H       33   0.009548(    33)     30   0.002387(    67)     27  -0.049757(   100)     0
     35  H       33   0.008524(    34)     30   0.006363(    68)     27  -0.050551(   101)     0
     36  H       30   0.010168(    35)     27  -0.005969(    69)     24   0.045684(   102)     0
 -----------------------------------------------------------------------------------------------
 Internal  Forces:  Max     0.051906958 RMS     0.011352242

 GradGradGradGradGradGradGradGradGradGradGradGradGradGradGradGradGradGrad
 Berny optimization.
 Search for a local minimum.
 Step number   1 out of a maximum of  200
 All quantities printed in internal units (Hartrees-Bohrs-Radians)
 Second derivative matrix not updated -- first step.
 ITU=  0
     Eigenvalues ---    0.01014   0.01016   0.01028   0.01028   0.01028
     Eigenvalues ---    0.01029   0.01039   0.01071   0.01312   0.01976
     Eigenvalues ---    0.08427   0.13370   0.15083   0.15094   0.15113
     Eigenvalues ---    0.15114   0.15115   0.15120   0.15130   0.15296
     Eigenvalues ---    0.15820   0.16000   0.17238   0.17292   0.17292
     Eigenvalues ---    0.17293   0.17293   0.17294   0.17306   0.17325
     Eigenvalues ---    0.17544   0.19880   0.20945   0.23861   0.29418
     Eigenvalues ---    0.29426   0.29460   0.29461   0.29462   0.29462
     Eigenvalues ---    0.29463   0.29566   0.30331   0.32194   0.33834
     Eigenvalues ---    0.33966   0.33967   0.34027   0.34033   0.34033
     Eigenvalues ---    0.34036   0.34036   0.34037   0.34037   0.34037
     Eigenvalues ---    0.34037   0.34037   0.34037   0.34037   0.34037
     Eigenvalues ---    0.34064   0.34104   0.34104   0.34276   0.34277
     Eigenvalues ---    0.34299   0.35012   0.35313   0.35332   0.36582
     Eigenvalues ---    0.36628   0.36659   0.36681   0.36682   0.36682
     Eigenvalues ---    0.36687   0.36695   0.37162   0.39241   0.39324
     Eigenvalues ---    0.39326   0.39326   0.39328   0.39329   0.39338
     Eigenvalues ---    0.39352   0.39417   0.39726   0.42862   0.42864
     Eigenvalues ---    0.42864   0.42864   0.42875   0.42885   0.42900
     Eigenvalues ---    0.42929   0.43149   0.48000   0.53121   0.57454
     Eigenvalues --- 1000.000001000.00000
 RFO step:  Lambda=-2.98515547D-02 EMin= 1.01388632D-02
 Linear search not attempted -- first point.
 Maximum step size (   0.300) exceeded in Quadratic search.
    -- Step size scaled by   0.846
 Variable       Old X    -DE/DX   Delta X   Delta X   Delta X     New X
                                 (Linear)    (Quad)   (Total)
    B1        2.87308   0.00149   0.00000   0.00378   0.00378   2.87686
    B2        2.06829   0.00478   0.00000   0.01085   0.01085   2.07913
    A2        1.92443   0.00668   0.00000   0.02336   0.02336   1.94778
    B3        2.06866   0.00515   0.00000   0.01170   0.01170   2.08036
    A3        1.93731   0.00207   0.00000   0.00070   0.00070   1.93800
    D3        4.19337  -0.00109   0.00000  -0.00660  -0.00660   4.18677
    B4        2.06865   0.00516   0.00000   0.01171   0.01171   2.08036
    A4        1.93737   0.00206   0.00000   0.00085   0.00085   1.93822
    D4        2.08990   0.00109   0.00000   0.00721   0.00721   2.09711
    B5        2.88837  -0.00299   0.00000  -0.00777  -0.00777   2.88060
    A5        1.94593   0.01042   0.00000   0.02274   0.02274   1.96867
    D5        3.14200  -0.00001   0.00000  -0.00325  -0.00325   3.13876
    B6        2.07156   0.00600   0.00000   0.01370   0.01370   2.08525
    A6        1.90492   0.00509   0.00000   0.00915   0.00915   1.91407
    D6        1.02042  -0.00113   0.00000  -0.00751  -0.00751   1.01292
    B7        2.07156   0.00601   0.00000   0.01370   0.01370   2.08525
    A7        1.90497   0.00508   0.00000   0.00885   0.00885   1.91382
    D7        5.26348   0.00115   0.00000   0.00230   0.00230   5.26578
    B8        2.89047  -0.00294   0.00000  -0.00767  -0.00767   2.88279
    A8        1.94309   0.01158   0.00000   0.03189   0.03189   1.97498
    D8        3.14277  -0.00004   0.00000  -0.00873  -0.00873   3.13404
    B9        2.07275   0.00635   0.00000   0.01452   0.01452   2.08727
    A9        1.91232   0.00111   0.00000  -0.00475  -0.00475   1.90757
    D9        1.02439  -0.00217   0.00000  -0.01743  -0.01743   1.00695
   B10        2.07275   0.00635   0.00000   0.01451   0.01451   2.08726
   A10        1.91235   0.00111   0.00000  -0.00365  -0.00365   1.90870
   D10        5.26097   0.00218   0.00000   0.00517   0.00517   5.26614
   B11        2.89051  -0.00290   0.00000  -0.00756  -0.00756   2.88295
   A11        1.94306   0.01172   0.00000   0.03116   0.03116   1.97422
   D11        3.14246  -0.00002   0.00000  -0.00314  -0.00314   3.13931
   B12        2.07269   0.00624   0.00000   0.01425   0.01425   2.08694
   A12        1.91222   0.00122   0.00000  -0.00361  -0.00361   1.90861
[...]
     5  H    0.008654  -0.009879   0.000445   0.007739  -0.001920  -0.000007
     6  C   -0.024679  -0.024682   0.366710   0.372539   0.372523  -0.039151
     7  H    0.692890  -0.036046  -0.007319   0.009830  -0.012013   0.000334
     8  H   -0.036046   0.692970  -0.007340  -0.012018   0.009828   0.000333
     9  C   -0.007319  -0.007340   4.747715  -0.022017  -0.021948   0.368605
    10  H    0.009830  -0.012018  -0.022017   0.700064  -0.038210  -0.007498
    11  H   -0.012013   0.009828  -0.021948  -0.038210   0.699914  -0.007499
    12  C    0.000334   0.000333   0.368605  -0.007498  -0.007499   4.743314
    13  H    0.008371  -0.002087   0.370086   0.009715  -0.012066  -0.022360
    14  H   -0.002092   0.008386   0.370117  -0.012033   0.009716  -0.022373
    15  C    0.000004   0.000004  -0.040824   0.000407   0.000403   0.372223
    16  H    0.000020  -0.000042  -0.022854   0.008141  -0.002026   0.369881
    17  H   -0.000042   0.000020  -0.022826  -0.002031   0.008129   0.369933
    18  C    0.000000   0.000000   0.007930   0.000001   0.000001  -0.042029
    19  H   -0.000011   0.000004  -0.007144   0.000018  -0.000041  -0.022495
    20  H    0.000004  -0.000011  -0.007154  -0.000041   0.000018  -0.022509
    21  C    0.000000   0.000000  -0.000408   0.000000   0.000000   0.007961
    22  H    0.000000   0.000000   0.000358  -0.000011   0.000005  -0.007230
    23  H    0.000000   0.000000   0.000355   0.000005  -0.000011  -0.007104
    24  C    0.000000   0.000000   0.000006   0.000000   0.000000  -0.000394
    25  H    0.000000   0.000000   0.000003   0.000000   0.000000   0.000349
    26  H    0.000000   0.000000   0.000003   0.000000   0.000000   0.000366
    27  C    0.000000   0.000000   0.000000   0.000000   0.000000   0.000006
    28  H    0.000000   0.000000   0.000000   0.000000   0.000000   0.000002
    29  H    0.000000   0.000000   0.000000   0.000000   0.000000   0.000000
    30  C    0.000000   0.000000   0.000000   0.000000   0.000000   0.000000
    31  H    0.000000   0.000000   0.000000   0.000000   0.000000   0.000000
    32  H    0.000000   0.000000   0.000000   0.000000   0.000000   0.000000
    33  C    0.000000   0.000000   0.000000   0.000000   0.000000   0.000000
    34  H    0.000000   0.000000   0.000000   0.000000   0.000000   0.000000
    35  H    0.000000   0.000000   0.000000   0.000000   0.000000   0.000000
    36  H    0.000000   0.000000   0.000000   0.000000   0.000000   0.000000
              13         14         15         16         17         18
     1  C    0.000270   0.000274   0.000007   0.000007   0.000007   0.000000
     2  C   -0.006706  -0.006706  -0.000378   0.000293   0.000296   0.000006
     3  H    0.000008   0.000008   0.000000   0.000000   0.000000   0.000000
     4  H   -0.000050   0.000025   0.000000   0.000003  -0.000009   0.000000
     5  H    0.000025  -0.000051   0.000000  -0.000009   0.000003   0.000000
     6  C   -0.023486  -0.023557   0.007670  -0.007090  -0.007067  -0.000401
     7  H    0.008371  -0.002092   0.000004   0.000020  -0.000042   0.000000
     8  H   -0.002087   0.008386   0.000004  -0.000042   0.000020   0.000000
     9  C    0.370086   0.370117  -0.040824  -0.022854  -0.022826   0.007930
    10  H    0.009715  -0.012033   0.000407   0.008141  -0.002031   0.000001
    11  H   -0.012066   0.009716   0.000403  -0.002026   0.008129   0.000001
    12  C   -0.022360  -0.022373   0.372223   0.369881   0.369933  -0.042029
    13  H    0.699495  -0.037464  -0.007280   0.009664  -0.012019   0.000367
    14  H   -0.037464   0.699650  -0.007311  -0.012038   0.009660   0.000364
    15  C   -0.007280  -0.007311   4.740401  -0.022374  -0.022343   0.372154
    16  H    0.009664  -0.012038  -0.022374   0.699261  -0.037347  -0.007278
    17  H   -0.012019   0.009660  -0.022343  -0.037347   0.698931  -0.007259
    18  C    0.000367   0.000364   0.372154  -0.007278  -0.007259   4.741231
    19  H    0.008181  -0.002023   0.369819   0.009654  -0.012061  -0.022606
    20  H   -0.002031   0.008197   0.369757  -0.012030   0.009657  -0.022623
    21  C    0.000003   0.000003  -0.041178   0.000368   0.000362   0.368235
    22  H    0.000019  -0.000040  -0.022150   0.008190  -0.002016   0.369889
    23  H   -0.000041   0.000019  -0.022172  -0.002024   0.008167   0.369997
    24  C    0.000000   0.000000   0.007676   0.000004   0.000002  -0.038269
    25  H   -0.000011   0.000005  -0.007288   0.000019  -0.000040  -0.021474
    26  H    0.000005  -0.000011  -0.007001  -0.000041   0.000019  -0.022719
    27  C    0.000000   0.000000  -0.000372   0.000000   0.000000   0.007343
    28  H    0.000000   0.000000   0.000357  -0.000011   0.000004  -0.006868
    29  H    0.000000   0.000000   0.000410   0.000004  -0.000011  -0.007775
    30  C    0.000000   0.000000   0.000006   0.000000   0.000000  -0.000366
    31  H    0.000000   0.000000   0.000002   0.000000   0.000000   0.000332
    32  H    0.000000   0.000000  -0.000001   0.000000   0.000000   0.000337
    33  C    0.000000   0.000000   0.000000   0.000000   0.000000   0.000008
    34  H    0.000000   0.000000   0.000000   0.000000   0.000000   0.000000
    35  H    0.000000   0.000000   0.000000   0.000000   0.000000   0.000000
    36  H    0.000000   0.000000   0.000000   0.000000   0.000000   0.000006
              19         20         21         22         23         24
     1  C    0.000000   0.000000   0.000000   0.000000   0.000000   0.000000
     2  C    0.000003   0.000003   0.000000   0.000000   0.000000   0.000000
     3  H    0.000000   0.000000   0.000000   0.000000   0.000000   0.000000
     4  H    0.000000   0.000000   0.000000   0.000000   0.000000   0.000000
     5  H    0.000000   0.000000   0.000000   0.000000   0.000000   0.000000
     6  C    0.000347   0.000355   0.000006   0.000003   0.000004   0.000000
     7  H   -0.000011   0.000004   0.000000   0.000000   0.000000   0.000000
     8  H    0.000004  -0.000011   0.000000   0.000000   0.000000   0.000000
     9  C   -0.007144  -0.007154  -0.000408   0.000358   0.000355   0.000006
    10  H    0.000018  -0.000041   0.000000  -0.000011   0.000005   0.000000
    11  H   -0.000041   0.000018   0.000000   0.000005  -0.000011   0.000000
    12  C   -0.022495  -0.022509   0.007961  -0.007230  -0.007104  -0.000394
    13  H    0.008181  -0.002031   0.000003   0.000019  -0.000041   0.000000
    14  H   -0.002023   0.008197   0.000003  -0.000040   0.000019   0.000000
    15  C    0.369819   0.369757  -0.041178  -0.022150  -0.022172   0.007676
    16  H    0.009654  -0.012030   0.000368   0.008190  -0.002024   0.000004
    17  H   -0.012061   0.009657   0.000362  -0.002016   0.008167   0.000002
    18  C   -0.022606  -0.022623   0.368235   0.369889   0.369997  -0.038269
    19  H    0.699128  -0.037353  -0.007251   0.009639  -0.012016   0.000368
    20  H   -0.037353   0.699522  -0.007292  -0.012031   0.009624   0.000349
    21  C   -0.007251  -0.007292   4.761187  -0.022830  -0.022454   0.354377
    22  H    0.009639  -0.012031  -0.022830   0.698448  -0.037212  -0.007085
    23  H   -0.012016   0.009624  -0.022454  -0.037212   0.697565  -0.007251
    24  C    0.000368   0.000349   0.354377  -0.007085  -0.007251   4.802977
    25  H    0.008158  -0.002018   0.368348   0.009634  -0.012107  -0.022556
    26  H   -0.002022   0.008149   0.371461  -0.011945   0.009634  -0.025328
    27  C    0.000003   0.000001  -0.035979   0.000308   0.000316   0.349432
    28  H    0.000017  -0.000042  -0.023001   0.008098  -0.002011   0.372214
    29  H   -0.000038   0.000016  -0.019898  -0.001978   0.007925   0.370311
    30  C    0.000000   0.000000   0.007809   0.000014  -0.000004  -0.052005
    31  H   -0.000011   0.000004  -0.006237   0.000017  -0.000031  -0.019611
    32  H    0.000005  -0.000011  -0.008588  -0.000044   0.000020  -0.027988
    33  C    0.000000   0.000000  -0.000528   0.000000   0.000000   0.009884
    34  H    0.000000   0.000000  -0.000028   0.000000   0.000000   0.000514
    35  H    0.000000   0.000000   0.000017   0.000000   0.000000  -0.000402
    36  H    0.000000   0.000000   0.000034  -0.000011   0.000004  -0.005324
              25         26         27         28         29         30
     1  C    0.000000   0.000000   0.000000   0.000000   0.000000   0.000000
     2  C    0.000000   0.000000   0.000000   0.000000   0.000000   0.000000
     3  H    0.000000   0.000000   0.000000   0.000000   0.000000   0.000000
     4  H    0.000000   0.000000   0.000000   0.000000   0.000000   0.000000
     5  H    0.000000   0.000000   0.000000   0.000000   0.000000   0.000000
     6  C    0.000000   0.000000   0.000000   0.000000   0.000000   0.000000
     7  H    0.000000   0.000000   0.000000   0.000000   0.000000   0.000000
     8  H    0.000000   0.000000   0.000000   0.000000   0.000000   0.000000
     9  C    0.000003   0.000003   0.000000   0.000000   0.000000   0.000000
    10  H    0.000000   0.000000   0.000000   0.000000   0.000000   0.000000
    11  H    0.000000   0.000000   0.000000   0.000000   0.000000   0.000000
    12  C    0.000349   0.000366   0.000006   0.000002   0.000000   0.000000
    13  H   -0.000011   0.000005   0.000000   0.000000   0.000000   0.000000
    14  H    0.000005  -0.000011   0.000000   0.000000   0.000000   0.000000
    15  C   -0.007288  -0.007001  -0.000372   0.000357   0.000410   0.000006
    16  H    0.000019  -0.000041   0.000000  -0.000011   0.000004   0.000000
    17  H   -0.000040   0.000019   0.000000   0.000004  -0.000011   0.000000
    18  C   -0.021474  -0.022719   0.007343  -0.006868  -0.007775  -0.000366
    19  H    0.008158  -0.002022   0.000003   0.000017  -0.000038   0.000000
    20  H   -0.002018   0.008149   0.000001  -0.000042   0.000016   0.000000
    21  C    0.368348   0.371461  -0.035979  -0.023001  -0.019898   0.007809
    22  H    0.009634  -0.011945   0.000308   0.008098  -0.001978   0.000014
    23  H   -0.012107   0.009634   0.000316  -0.002011   0.007925  -0.000004
    24  C   -0.022556  -0.025328   0.349432   0.372214   0.370311  -0.052005
    25  H    0.698193  -0.037486  -0.006616   0.009572  -0.011834   0.000265
    26  H   -0.037486   0.699822  -0.006556  -0.012055   0.009608   0.000346
    27  C   -0.006616  -0.006556   4.731975  -0.026451  -0.024950   0.394268
    28  H    0.009572  -0.012055  -0.026451   0.694527  -0.036740  -0.008011
    29  H   -0.011834   0.009608  -0.024950  -0.036740   0.688210   0.000646
    30  C    0.000265   0.000346   0.394268  -0.008011   0.000646   4.772806
    31  H    0.007462  -0.002025   0.364134   0.009183  -0.012187  -0.031456
    32  H   -0.001952   0.009124   0.382006  -0.010744   0.009592  -0.010976
    33  C    0.000039  -0.000022  -0.059918   0.000609  -0.000014   0.666246
    34  H   -0.000003   0.000001  -0.015142   0.000040  -0.000069  -0.031841
    35  H    0.000000  -0.000001   0.008640  -0.000011   0.000005  -0.007445
    36  H    0.000027  -0.000062  -0.054052   0.008931  -0.001964   0.371761
              31         32         33         34         35         36
     1  C    0.000000   0.000000   0.000000   0.000000   0.000000   0.000000
     2  C    0.000000   0.000000   0.000000   0.000000   0.000000   0.000000
     3  H    0.000000   0.000000   0.000000   0.000000   0.000000   0.000000
     4  H    0.000000   0.000000   0.000000   0.000000   0.000000   0.000000
     5  H    0.000000   0.000000   0.000000   0.000000   0.000000   0.000000
     6  C    0.000000   0.000000   0.000000   0.000000   0.000000   0.000000
     7  H    0.000000   0.000000   0.000000   0.000000   0.000000   0.000000
     8  H    0.000000   0.000000   0.000000   0.000000   0.000000   0.000000
     9  C    0.000000   0.000000   0.000000   0.000000   0.000000   0.000000
    10  H    0.000000   0.000000   0.000000   0.000000   0.000000   0.000000
    11  H    0.000000   0.000000   0.000000   0.000000   0.000000   0.000000
    12  C    0.000000   0.000000   0.000000   0.000000   0.000000   0.000000
    13  H    0.000000   0.000000   0.000000   0.000000   0.000000   0.000000
    14  H    0.000000   0.000000   0.000000   0.000000   0.000000   0.000000
    15  C    0.000002  -0.000001   0.000000   0.000000   0.000000   0.000000
    16  H    0.000000   0.000000   0.000000   0.000000   0.000000   0.000000
    17  H    0.000000   0.000000   0.000000   0.000000   0.000000   0.000000
    18  C    0.000332   0.000337   0.000008   0.000000   0.000000   0.000006
    19  H   -0.000011   0.000005   0.000000   0.000000   0.000000   0.000000
    20  H    0.000004  -0.000011   0.000000   0.000000   0.000000   0.000000
    21  C   -0.006237  -0.008588  -0.000528  -0.000028   0.000017   0.000034
    22  H    0.000017  -0.000044   0.000000   0.000000   0.000000  -0.000011
    23  H   -0.000031   0.000020   0.000000   0.000000   0.000000   0.000004
    24  C   -0.019611  -0.027988   0.009884   0.000514  -0.000402  -0.005324
    25  H    0.007462  -0.001952   0.000039  -0.000003   0.000000   0.000027
    26  H   -0.002025   0.009124  -0.000022   0.000001  -0.000001  -0.000062
    27  C    0.364134   0.382006  -0.059918  -0.015142   0.008640  -0.054052
    28  H    0.009183  -0.010744   0.000609   0.000040  -0.000011   0.008931
    29  H   -0.012187   0.009592  -0.000014  -0.000069   0.000005  -0.001964
    30  C   -0.031456  -0.010976   0.666246  -0.031841  -0.007445   0.371761
    31  H    0.683339  -0.033411  -0.003077   0.007535  -0.000614   0.010208
    32  H   -0.033411   0.664076  -0.010642  -0.000629  -0.000052  -0.010976
    33  C   -0.003077  -0.010642   4.774724   0.390872   0.376187  -0.033201
    34  H    0.007535  -0.000629   0.390872   0.640032  -0.048751   0.010354
    35  H   -0.000614  -0.000052   0.376187  -0.048751   0.640559  -0.020917
    36  H    0.010208  -0.010976  -0.033201   0.010354  -0.020917   0.700750
 Mulliken charges:
               1
     1  C   -0.062116
     2  C   -0.077744
     3  H    0.039232
     4  H    0.035129
     5  H    0.035064
     6  C   -0.062614
     7  H    0.028161
     8  H    0.028101
     9  C   -0.039827
    10  H    0.020336
    11  H    0.020453
    12  C   -0.039954
    13  H    0.019392
    14  H    0.019275
    15  C   -0.040628
    16  H    0.019653
    17  H    0.019877
    18  C   -0.038534
    19  H    0.019726
    20  H    0.019489
    21  C   -0.044499
    22  H    0.019961
    23  H    0.020802
    24  C   -0.061901
    25  H    0.021312
    26  H    0.018736
    27  C   -0.008397
    28  H    0.022388
    29  H    0.030732
    30  C   -0.072063
    31  H    0.026442
    32  H    0.050852
    33  C   -0.111167
    34  H    0.047113
    35  H    0.052784
    36  H    0.024433
 Sum of Mulliken charges =   0.00000
 Mulliken charges with hydrogens summed into heavy atoms:
               1
     1  C    0.047309
     2  C   -0.021482
     6  C   -0.021824
     9  C   -0.001161
    12  C   -0.000424
    15  C   -0.001413
    18  C    0.002229
    21  C   -0.004451
    24  C   -0.008781
    27  C    0.068898
    30  C   -0.047630
    33  C   -0.011270
 Electronic spatial extent (au):  <R**2>=           7115.5178
 Charge=              0.0000 electrons
 Dipole moment (field-independent basis, Debye):
    X=             -0.4063    Y=              0.3197    Z=             -0.2875  Tot=              0.5916
 Quadrupole moment (field-independent basis, Debye-Ang):
   XX=            -83.6321   YY=            -81.6561   ZZ=            -79.0316
   XY=              1.6875   XZ=             -1.7241   YZ=              1.0311
 Traceless Quadrupole moment (field-independent basis, Debye-Ang):
   XX=             -2.1922   YY=             -0.2162   ZZ=              2.4083
   XY=              1.6875   XZ=             -1.7241   YZ=              1.0311
 Octapole moment (field-independent basis, Debye-Ang**2):
  XXX=            -14.6735  YYY=              0.7879  ZZZ=             -0.0620  XYY=             -5.6019
  XXY=             15.0929  XXZ=            -11.4695  XZZ=             -0.0979  YZZ=              0.4907
  YYZ=             -0.7061  XYZ=              5.6791
 Hexadecapole moment (field-independent basis, Debye-Ang**3):
 XXXX=          -9596.1230 YYYY=           -267.4134 ZZZZ=           -167.7332 XXXY=             59.8145
 XXXZ=            -74.8760 YYYX=              4.7095 YYYZ=              3.0414 ZZZX=             -0.8414
 ZZZY=              0.2625 XXYY=          -1680.8511 XXZZ=          -1595.5707 YYZZ=            -67.5993
 XXYZ=             43.1303 YYXZ=             -3.6854 ZZXY=              5.9305
 N-N= 6.509896157931D+02 E-N=-2.388018385722D+03  KE= 4.648711020311D+02
 1\1\GINC-NODE0192\POpt\RM06\def2SVP\C12H24\JGOODPAS\17-Oct-2017\1\\# O
 pt=(Z-mat,maxcycle=200) m06/def2svp Integral=SuperFineGrid\\C12H24\\0,
 1\C\C,1,B1\H,1,B2,2,A2\H,1,B3,2,A3,3,D3,0\H,1,B4,2,A4,3,D4,0\C,2,B5,1,
 A5,3,D5,0\H,2,B6,1,A6,3,D6,0\H,2,B7,1,A7,3,D7,0\C,6,B8,2,A8,1,D8,0\H,6
 ,B9,2,A9,1,D9,0\H,6,B10,2,A10,1,D10,0\C,9,B11,6,A11,2,D11,0\H,9,B12,6,
 A12,2,D12,0\H,9,B13,6,A13,2,D13,0\C,12,B14,9,A14,6,D14,0\H,12,B15,9,A1
 5,6,D15,0\H,12,B16,9,A16,6,D16,0\C,15,B17,12,A17,9,D17,0\H,15,B18,12,A
 18,9,D18,0\H,15,B19,12,A19,9,D19,0\C,18,B20,15,A20,12,D20,0\H,18,B21,1
 5,A21,12,D21,0\H,18,B22,15,A22,12,D22,0\C,21,B23,18,A23,15,D23,0\H,21,
 B24,18,A24,15,D24,0\H,21,B25,18,A25,15,D25,0\C,24,B26,21,A26,18,D26,0\
 H,24,B27,21,A27,18,D27,0\H,24,B28,21,A28,18,D28,0\C,27,B29,24,A29,21,D
 29,0\H,27,B30,24,A30,21,D30,0\H,27,B31,24,A31,21,D31,0\C,30,B32,27,A32
 ,24,D32,0\H,33,B33,30,A33,27,D33,0\H,33,B34,30,A34,27,D34,0\H,30,B35,2
 7,A35,24,D35,0\\B1=1.51590148\B2=1.10117447\A2=112.25997463\B3=1.10338
 414\A3=111.19370572\D3=239.56716398\B4=1.10339483\A4=111.19016578\D4=1
 20.4250937\B5=1.51866474\A5=113.1031476\D5=180.0502998\B6=1.10692033\A
 6=110.00560883\D6=57.80021893\B7=1.10692095\A7=109.99886998\D7=302.292
 75186\B8=1.51740378\A8=113.756941\D8=180.00077988\B9=1.10864114\A9=109
 .36965482\D9=57.34769401\B10=1.10863529\A10=109.37114114\D10=302.65782
 07\B11=1.5175461\A11=113.73525039\D11=180.06296981\B12=1.10847036\A12=
 109.3955613\D12=57.43791712\B13=1.10847915\A13=109.38947782\D13=302.68
 379393\B14=1.51752224\A14=113.71903244\D14=180.02627051\B15=1.1084342\
 A15=109.39664256\D15=57.40647752\B16=1.10842211\A16=109.39953838\D16=3
 02.64955436\B17=1.51752608\A17=113.70566551\D17=180.07247526\B18=1.108
 42691\A18=109.39780491\D18=57.45342851\B19=1.10844926\A19=109.39181871
 \D19=302.69662367\B20=1.51745667\A20=113.70924215\D20=180.05627884\B21
 =1.10840837\A21=109.39950894\D21=57.43431374\B22=1.10833166\A22=109.40
 552648\D22=302.66634514\B23=1.5173311\A23=113.70601045\D23=180.1263685
 4\B24=1.10841802\A24=109.39002934\D24=57.49137486\B25=1.10868514\A25=1
 09.38707438\D25=302.74783012\B26=1.52002569\A26=113.35796552\D26=179.8
 5995882\B27=1.10837996\A27=109.46515746\D27=57.60585373\B28=1.10692134
 \A28=109.58929311\D28=302.56084803\B29=1.49938957\A29=115.67046927\D29
 =186.29134144\B30=1.1080768\A30=110.19355065\D30=59.10239751\B31=1.107
 46148\A31=109.01231332\D31=303.82113738\B32=1.33941948\A32=127.8516619
 2\D32=203.8795615\B33=1.09886272\A33=122.00867588\B34=1.09513286\A34=1
 21.66893054\B35=1.10681356\A35=109.92354446\D35=57.09019061\D33=45.\D3
 4=225.\\Version=ES64L-G09RevD.01\State=1-A\HF=-470.9570725\RMSD=4.403e
 -09\RMSF=5.204e-03\Dipole=0.2031352,-0.0978222,-0.0577577\Quadrupole=-
 1.9881483,1.9395771,0.0485711,1.0561945,1.1583929,-0.658151\PG=C01 [X(
 C12H24)]\\@



 WE LOSE BECAUSE WE WIN

 GAMBLERS,

 RECOLLECTING WHICH,

 TOSS THEIR DICE AGAIN....


                          EMILY DICKINSON  BOLTS OF MELODY NO. 533
 Job cpu time:       0 days  2 hours 37 minutes 44.2 seconds.
 File lengths (MBytes):  RWF=     40 Int=      0 D2E=      0 Chk=     17 Scr=      1
 Normal termination of Gaussian 09 at Tue Oct 17 17:08:33 2017.
9105.13user 359.12system 21:36.76elapsed 729%CPU (0avgtext+0avgdata 7493920maxresident)k
330736inputs+895304outputs (239major+227070388minor)pagefaults 0swaps
