 Entering Gaussian System, Link 0=g09
 Initial command:
 /soft/gaussian/g09.d01_itasca/g09/l1.exe "/scratch/graha682/1920645.node1081.localdomain/Gau-7927.inp" -scrdir="/scratch/graha682/1920645.node1081.localdomain/"
 Entering Link 1 = /soft/gaussian/g09.d01_itasca/g09/l1.exe PID=      7928.
  
 Copyright (c) 1988,1990,1992,1993,1995,1998,2003,2009,2013,
            Gaussian, Inc.  All Rights Reserved.
  
 This is part of the Gaussian(R) 09 program.  It is based on
 the Gaussian(R) 03 system (copyright 2003, Gaussian, Inc.),
 the Gaussian(R) 98 system (copyright 1998, Gaussian, Inc.),
 the Gaussian(R) 94 system (copyright 1995, Gaussian, Inc.),
 the Gaussian 92(TM) system (copyright 1992, Gaussian, Inc.),
 the Gaussian 90(TM) system (copyright 1990, Gaussian, Inc.),
 the Gaussian 88(TM) system (copyright 1988, Gaussian, Inc.),
 the Gaussian 86(TM) system (copyright 1986, Carnegie Mellon
 University), and the Gaussian 82(TM) system (copyright 1983,
 Carnegie Mellon University). Gaussian is a federally registered
 trademark of Gaussian, Inc.
  
 This software contains proprietary and confidential information,
 including trade secrets, belonging to Gaussian, Inc.
  
 This software is provided under written license and may be
 used, copied, transmitted, or stored only in accord with that
 written license.
  
 The following legend is applicable only to US Government
 contracts under FAR:
  
                    RESTRICTED RIGHTS LEGEND
  
 Use, reproduction and disclosure by the US Government is
 subject to restrictions as set forth in subparagraphs (a)
 and (c) of the Commercial Computer Software - Restricted
 Rights clause in FAR 52.227-19.
  
 Gaussian, Inc.
 340 Quinnipiac St., Bldg. 40, Wallingford CT 06492
  
  
 ---------------------------------------------------------------
 Warning -- This program may not be used in any manner that
 competes with the business of Gaussian, Inc. or will provide
 assistance to any competitor of Gaussian, Inc.  The licensee
 of this program is prohibited from giving any competitor of
 Gaussian, Inc. access to this program.  By using this program,
 the user acknowledges that Gaussian, Inc. is engaged in the
 business of creating and licensing software in the field of
 computational chemistry and represents and warrants to the
 licensee that it is not a competitor of Gaussian, Inc. and that
 it will not use this program in any manner prohibited above.
 ---------------------------------------------------------------
  

 Cite this work as:
 Gaussian 09, Revision D.01,
 M. J. Frisch, G. W. Trucks, H. B. Schlegel, G. E. Scuseria, 
 M. A. Robb, J. R. Cheeseman, G. Scalmani, V. Barone, B. Mennucci, 
 G. A. Petersson, H. Nakatsuji, M. Caricato, X. Li, H. P. Hratchian, 
 A. F. Izmaylov, J. Bloino, G. Zheng, J. L. Sonnenberg, M. Hada, 
 M. Ehara, K. Toyota, R. Fukuda, J. Hasegawa, M. Ishida, T. Nakajima, 
 Y. Honda, O. Kitao, H. Nakai, T. Vreven, J. A. Montgomery, Jr., 
 J. E. Peralta, F. Ogliaro, M. Bearpark, J. J. Heyd, E. Brothers, 
 K. N. Kudin, V. N. Staroverov, T. Keith, R. Kobayashi, J. Normand, 
 K. Raghavachari, A. Rendell, J. C. Burant, S. S. Iyengar, J. Tomasi, 
 M. Cossi, N. Rega, J. M. Millam, M. Klene, J. E. Knox, J. B. Cross, 
 V. Bakken, C. Adamo, J. Jaramillo, R. Gomperts, R. E. Stratmann, 
 O. Yazyev, A. J. Austin, R. Cammi, C. Pomelli, J. W. Ochterski, 
 R. L. Martin, K. Morokuma, V. G. Zakrzewski, G. A. Voth, 
 P. Salvador, J. J. Dannenberg, S. Dapprich, A. D. Daniels, 
 O. Farkas, J. B. Foresman, J. V. Ortiz, J. Cioslowski, 
 and D. J. Fox, Gaussian, Inc., Wallingford CT, 2013.
 
 ******************************************
 Gaussian 09:  ES64L-G09RevD.01 24-Apr-2013
                10-Jul-2017 
 ******************************************
 %LindaWorkers=ic-node0704
 %NProcShared=8
 Will use up to    8 processors via shared memory.
 %Mem=11800mb
 SetLPE:  input flags=" -workerwait 250000 -opt "Tsnet.Node.lindarsharg: ssh " "
 SetLPE:    new flags=" -workerwait 250000 -opt "Tsnet.Node.lindarsharg: ssh "  -nodelist 'ic-node0704'"
 Will use up to    1 processors via Linda.
 --------------------------------------------
 # opt=qst2 aug-cc-pvtz geom=connectivity m06
 --------------------------------------------
 1/5=1,14=-1,18=20,26=3,27=202,38=1,57=2/1,3;
 2/9=110,12=2,17=6,18=5,40=1/2;
 3/5=16,6=1,7=10,11=2,16=1,25=1,30=1,71=1,74=-54/1,2,3;
 4//1;
 5/5=2,38=5/2;
 6/7=2,8=2,9=2,10=2,28=1/1;
 7//1,2,3,16;
 1/5=1,14=-1,18=20,26=3,27=202/3(2);
 2/9=110/2;
 99//99;
 2/9=110/2;
 3/5=16,6=1,7=10,11=2,16=1,25=1,30=1,71=1,74=-54/1,2,3;
 4/5=5,16=3,69=1/1;
 5/5=2,38=5/2;
 7//1,2,3,16;
 1/5=1,14=-1,18=20,26=3,27=202/3(-5);
 2/9=110/2;
 6/7=2,8=2,9=2,10=2,19=2,28=1/1;
 99/9=1/99;
 -------------------
 Title Card Required
 -------------------
 Symbolic Z-matrix:
 Charge = -1 Multiplicity = 1
 C                    -1.86286  -0.94766   0.00672 
 H                    -2.75821  -1.10153   0.57862 
 H                    -1.98373  -0.80379  -1.05013 
 C                    -0.61548  -0.50226   0.68905 
 H                    -0.8775    0.41264   1.22629 
 H                    -0.3016   -1.25826   1.41533 
 C                     0.50704  -0.21554  -0.28326 
 H                     0.70607  -1.11565  -0.87787 
 H                     0.16594   0.56154  -0.9767 
 C                     1.78016   0.23364   0.40125 
 H                     1.57239   1.1219    1.01252 
 H                     2.11224  -0.54269   1.10377 
 Cl                   -1.604    -2.34551  -0.14789 
 F                    -3.54533   4.19328  -0.08335 
 C                     2.90579   0.54481  -0.56472 
 H                     3.10425  -0.34058  -1.17906 
 H                     2.57408   1.32313  -1.26064 
 C                     4.17642   0.98403   0.13345 
 H                     4.53418   0.20696   0.81412 
 H                     4.98147   1.20712  -0.56978 
 H                     3.99991   1.88114   0.73285 
 
 Add virtual bond connecting atoms F14        and H5         Dist= 9.09D+00.
 -------------------
 Title Card Required
 -------------------
 Symbolic Z-matrix:
 Charge = -1 Multiplicity = 1
 C                    -2.60469   0.37562   0.11734 
 H                    -3.38417   0.1042    0.83523 
 H                    -2.55478  -0.39469  -0.65711 
 C                    -1.26877   0.52429   0.7746 
 H                    -1.31476   1.303     1.54682 
 H                    -1.05814  -0.43729   1.25784 
 C                    -0.14696   0.78977  -0.20817 
 H                    -0.19249   0.0083   -0.97522 
 H                    -0.28077   1.76152  -0.70015 
 C                     1.21456   0.71103   0.44792 
 H                     1.3219    1.50056   1.20674 
 H                     1.27809  -0.25299   0.9667 
 Cl                   -0.17443  -2.64471  -0.10112 
 F                    -3.00891   1.56989  -0.4853 
 C                     2.35022   0.79788  -0.54977 
 H                     2.23048  -0.02319  -1.26445 
 H                     2.26767   1.72811  -1.12638 
 C                     3.71222   0.71306   0.10717 
 H                     3.81426  -0.22965   0.64963 
 H                     4.52729   0.77071  -0.61776 
 H                     3.85138   1.52258   0.83016 
 
 Add virtual bond connecting atoms Cl13       and H6         Dist= 5.18D+00.
 Add virtual bond connecting atoms Cl13       and H8         Dist= 5.28D+00.
 Iteration  1 RMS(Cart)=  0.11416285 RMS(Int)=  0.87331639
 Iteration  2 RMS(Cart)=  0.06814924 RMS(Int)=  0.84811397
 Iteration  3 RMS(Cart)=  0.05108175 RMS(Int)=  0.82924485
 Iteration  4 RMS(Cart)=  0.04637860 RMS(Int)=  0.81513665
 Iteration  5 RMS(Cart)=  0.04280001 RMS(Int)=  0.80453178
 Iteration  6 RMS(Cart)=  0.03663128 RMS(Int)=  0.79668162
 Iteration  7 RMS(Cart)=  0.02966533 RMS(Int)=  0.79037454
 Iteration  8 RMS(Cart)=  0.02099184 RMS(Int)=  0.78448620
 Iteration  9 RMS(Cart)=  0.01964252 RMS(Int)=  0.77919655
 Iteration 10 RMS(Cart)=  0.01896153 RMS(Int)=  0.77470219
 Iteration 11 RMS(Cart)=  0.01858609 RMS(Int)=  0.77104962
 Iteration 12 RMS(Cart)=  0.01838811 RMS(Int)=  0.76825107
 Iteration 13 RMS(Cart)=  0.01828761 RMS(Int)=  0.76631044
 Iteration 14 RMS(Cart)=  0.01823913 RMS(Int)=  0.76522867
 Iteration 15 RMS(Cart)=  0.01650024 RMS(Int)=  0.76497228
 Iteration 16 RMS(Cart)=  0.00037033 RMS(Int)=  0.76495381
 Iteration 17 RMS(Cart)=  0.00007720 RMS(Int)=  0.76494936
 Iteration 18 RMS(Cart)=  0.00002792 RMS(Int)=  0.76494824
 Iteration 19 RMS(Cart)=  0.00000942 RMS(Int)=  0.76494794
 Iteration 20 RMS(Cart)=  0.00000322 RMS(Int)=  0.76494786
 Iteration 21 RMS(Cart)=  0.00000110 RMS(Int)=  0.76494783
 Iteration 22 RMS(Cart)=  0.00000037 RMS(Int)=  0.76494782
 Iteration  1 RMS(Cart)=  0.00000013 RMS(Int)=  0.76494782
 Iteration  1 RMS(Cart)=  0.00000004 RMS(Int)=  0.76494782
 Iteration  1 RMS(Cart)=  0.00000001 RMS(Int)=  0.76494782
 Iteration  1 RMS(Cart)=  0.00000001 RMS(Int)=  0.76494782
 Iteration  1 RMS(Cart)=  0.00000000 RMS(Int)=  0.76494782
 Iteration  1 RMS(Cart)=  0.00000000 RMS(Int)=  0.76494782
 Iteration  1 RMS(Cart)=  0.00000000 RMS(Int)=  0.76494782
 Iteration  1 RMS(Cart)=  0.00000000 RMS(Int)=  0.76494782
 Iteration  1 RMS(Cart)=  0.00000000 RMS(Int)=  0.76494782
   Var     Old X     New X   DQ Goal   DQ Act.  Rel. Err.   Overall
     1    2.0286    2.0479    0.0193    0.0193    1.0000
     2    2.0285    2.0474    0.0189    0.0189    1.0000
     3    2.8156    2.8365    0.0060    0.0210
     4    2.7023    5.0859    2.3176    2.3836    1.0285
     5   10.2234    6.4372   -3.7913   -3.7863    0.9987
     6    2.0652    2.0684    0.0045    0.0032
     7    2.0680    2.0641    0.0021   -0.0039
     8    2.8582    2.8462    0.0022   -0.0120
     9    9.0875    7.0444   -2.0313   -2.0431    1.0058
    10    4.3595    4.6943    0.4079    0.3348    0.8207
    11    2.0730    2.0854   -0.0010    0.0124
    12    2.0710    2.0724    0.0014    0.0014
    13    2.8604    2.8602   -0.0002   -0.0002
    14    5.1343    5.2149    0.0722    0.0806    1.1162
    15    2.0751    2.0772    0.0021    0.0021
    16    2.0757    2.0740   -0.0017   -0.0017
    17    2.8640    2.8627   -0.0013   -0.0013
    18    2.0707    2.0701   -0.0006   -0.0006
    19    2.0702    2.0721    0.0019    0.0019
    20    2.8627    2.8624   -0.0003   -0.0003
    21    2.0659    2.0651   -0.0008   -0.0008
    22    2.0635    2.0639    0.0003    0.0003
    23    2.0660    2.0669    0.0009    0.0009
    24    2.0374    2.0587   -0.0691    0.0214   -0.3091
    25    2.0911    2.0852   -0.0693   -0.0058    0.0844
    26    1.6393    1.8028    0.1128    0.1635    1.4492
    27    1.4562    1.5739    0.2038    0.1177    0.5774
    28    2.1003    2.1005   -0.0911    0.0002   -0.0023
    29    1.6158    1.2155   -0.3546   -0.4003    1.1290
    30    1.3911    1.5949    0.2474    0.2039    0.8242
    31    1.7621    1.4479   -0.3329   -0.3142    0.9439
    32    1.5547    1.7994    0.1937    0.2447    1.2635
    33    1.8490    1.8828    0.0355    0.0338    0.9533
    34    1.9151    1.8519   -0.0313   -0.0632    2.0175
    35    1.9645    1.9547    0.0054   -0.0098
    36    1.8974    1.8705   -0.0004   -0.0269
    37    1.9127    1.9308    0.0149    0.0181    1.2209
    38    1.9228    1.9682   -0.0250    0.0454   -1.8147
    39    2.2880    1.7035   -0.5863   -0.5845    0.9970
    40    1.2807    1.7829    0.4363    0.5022    1.1511
    41    1.9045    1.9059   -0.0154    0.0014   -0.0922
    42    1.8862    1.8929    0.0242    0.0067    0.2781
    43    1.9712    1.8997   -0.0075   -0.0715
    44    1.8706    1.8678    0.0091   -0.0028
    45    1.9135    1.9577   -0.0171    0.0442   -2.5939
    46    1.9151    1.9386    0.0067    0.0235
    47    1.6424    1.9574    0.2020    0.3150    1.5590
    48    1.9099    1.8545    0.0089   -0.0554
    49    1.9111    1.9229   -0.0163    0.0118   -0.7257
    50    1.9795    1.9877   -0.0061    0.0082
    51    1.8472    1.8300    0.0136   -0.0172   -1.2646
    52    1.9063    1.9105    0.0058    0.0042
    53    1.9052    1.9490   -0.0050    0.0438
    54    1.0341    1.0150   -0.0612   -0.0191    0.3127
    55    1.9028    1.9878   -0.0110    0.0850   -7.6954
    56    1.9027    1.8638    0.0066   -0.0389
    57    1.9701    1.9909   -0.0018    0.0208
    58    1.8470    1.8125    0.0061   -0.0345
    59    1.9185    1.9401   -0.0007    0.0216
    60    1.9185    1.8523    0.0012   -0.0663
    61    1.9341    1.9813   -0.0041    0.0473
    62    1.9615    1.9406   -0.0003   -0.0209
    63    1.9339    1.9133    0.0023   -0.0206
    64    1.8807    1.9260    0.0003    0.0454
    65    1.8700    1.9178    0.0019    0.0478
    66    1.8802    1.7737    0.0000   -0.1065
    67   -0.9601   -0.9451   -0.0389    0.0150   -0.3860
    68    1.0852    1.0548   -0.0372   -0.0304    0.8179
    69   -3.0501   -3.0739    3.0552   -0.0238   -0.0078
    70    1.8217    2.4979    0.6559    0.6761    1.0309
    71   -2.4161   -1.7854    0.6576    0.6307    0.9591
    72   -0.2683    0.3690    0.6084    0.6373    1.0475
    73   -2.7234   -2.7135   -0.0154    0.0100   -0.6469
    74   -0.6781   -0.7136   -0.0137   -0.0355    2.5959
    75    1.4697    1.4409   -0.0629   -0.0288    0.4590
    76    0.4693    0.7614    0.2881    0.2921    1.0139
    77    2.5146    2.7613    0.2898    0.2467    0.8511
    78   -1.6208   -1.3675    0.2406    0.2533    1.0526
    79   -0.7409   -0.6681    0.1248    0.0728    0.5835
    80   -2.7981   -2.6556    0.1429    0.1425    0.9973
    81    1.3827    1.4754    0.1648    0.0927    0.5623
    82    0.4098    0.8037    0.4783    0.3939    0.8236
    83    2.4246    2.8120   -2.6386    0.3874   -0.1468
    84   -1.7625   -1.3422    0.5060    0.4203    0.8305
    85   -1.0056   -0.9081    0.0437    0.0976    2.2320
    86    1.0228    1.1216    0.0592    0.0987    1.6681
    87   -3.1385   -3.0506    0.0800    0.0879    1.0988
    88   -3.0584   -3.0092   -0.0163    0.0492   -3.0188
    89   -1.0299   -0.9796   -0.0008    0.0503
    90    1.0919    1.1315    0.0200    0.0395    1.9767
    91    1.1379    1.1794   -0.0093    0.0415
    92   -3.1168   -3.0741    0.0062    0.0427
    93   -0.9949   -0.9631    0.0270    0.0319    1.1787
    94    1.0727    0.7572   -0.3980   -0.3155    0.7928
    95    0.2506   -0.2658   -0.5947   -0.5164    0.8683
    96   -1.7878   -2.3113   -0.6199   -0.5235    0.8445
    97    2.4178    1.8417   -0.6236   -0.5761    0.9239
    98   -0.9927   -0.9563   -0.0621    0.0363   -0.5851
    99    1.0247    1.0168   -0.0502   -0.0078    0.1564
   100   -3.1258   -3.0608    3.0698    0.0650    0.0212
   101   -3.1205   -3.0674    3.1149    0.0531    0.0170
   102   -1.1031   -1.0942   -0.0147    0.0089   -0.6072
   103    1.0296    1.1113   -0.0364    0.0818   -2.2476
   104    1.1128    1.1265   -0.0314    0.0137   -0.4359
   105    3.1302    3.0997   -0.0194   -0.0305    1.5688
   106   -1.0204   -0.9780   -0.0411    0.0423   -1.0299
   107   -0.7707   -0.1843    0.6178    0.5864    0.9491
   108   -0.9976   -0.9362   -0.0110    0.0613   -5.5586
   109    1.0111    1.0539   -0.0063    0.0428
   110   -3.1349    3.0943   -0.0012    6.2291
   111   -3.1327   -3.0091    3.1191    0.1236    0.0396
   112   -1.1241   -1.0190   -0.0178    0.1051   -5.8900
   113    1.0132    1.0214   -0.0127    0.0082   -0.6479
   114    1.1384    1.2555   -0.0391    0.1172   -2.9931
   115   -3.1362   -3.0375    3.1071    0.0986    0.0317
   116   -0.9989   -0.9972   -0.0293    0.0018   -0.0600
   117    1.0374    1.1208   -0.0005    0.0834
   118   -3.1405   -2.9784    3.1383    0.1622    0.0517
   119   -1.0360   -1.0311   -0.0018    0.0049
   120   -1.0910   -1.1557    0.0153   -0.0646   -4.2354
   121    1.0142    1.0283    0.0125    0.0141    1.1296
   122    3.1187    2.9756   -3.1276   -0.1431    0.0457
   123   -3.1174   -3.1153    0.0076    0.0020
   124   -1.0121   -0.9313    0.0049    0.0808
   125    1.0924    1.0160    0.0063   -0.0764

 GradGradGradGradGradGradGradGradGradGradGradGradGradGradGradGradGradGrad
 Berny optimization.
 Initialization pass.
                           ----------------------------
                           !    Initial Parameters    !
                           ! (Angstroms and Degrees)  !
 --------------------------                            --------------------------
 ! Name  Definition        TS        Reactant  Product Derivative Info.         !
 --------------------------------------------------------------------------------
 ! R1    R(1,2)             1.0837    1.0735    1.0939 estimate D2E/DX2         !
 ! R2    R(1,3)             1.0834    1.0734    1.0934 estimate D2E/DX2         !
 ! R3    R(1,4)             1.501     1.4899    1.4963 estimate D2E/DX2         !
 ! R4    R(1,13)            2.6913    1.43      3.8828 estimate D2E/DX2         !
 ! R5    R(1,14)            3.4064    5.41      1.3974 estimate D2E/DX2         !
 ! R6    R(4,5)             1.0946    1.0929    1.0976 estimate D2E/DX2         !
 ! R7    R(4,6)             1.0923    1.0943    1.0966 estimate D2E/DX2         !
 ! R8    R(4,7)             1.5062    1.5125    1.5148 estimate D2E/DX2         !
 ! R9    R(5,14)            3.7277    4.8089    2.6591 estimate D2E/DX2         !
 ! R10   R(6,13)            2.4841    2.307     2.7387 estimate D2E/DX2         !
 ! R11   R(7,8)             1.1035    1.097     1.096  estimate D2E/DX2         !
 ! R12   R(7,9)             1.0967    1.0959    1.0974 estimate D2E/DX2         !
 ! R13   R(7,10)            1.5135    1.5137    1.5134 estimate D2E/DX2         !
 ! R14   R(8,13)            2.7596    2.717     2.7934 estimate D2E/DX2         !
 ! R15   R(10,11)           1.0992    1.0981    1.1003 estimate D2E/DX2         !
 ! R16   R(10,12)           1.0975    1.0984    1.0966 estimate D2E/DX2         !
 ! R17   R(10,15)           1.5149    1.5156    1.5142 estimate D2E/DX2         !
 ! R18   R(15,16)           1.0954    1.0958    1.0951 estimate D2E/DX2         !
 ! R19   R(15,17)           1.0965    1.0955    1.0975 estimate D2E/DX2         !
 ! R20   R(15,18)           1.5147    1.5149    1.5145 estimate D2E/DX2         !
 ! R21   R(18,19)           1.0928    1.0932    1.0924 estimate D2E/DX2         !
 ! R22   R(18,20)           1.0922    1.092     1.0923 estimate D2E/DX2         !
 ! R23   R(18,21)           1.0938    1.0933    1.0943 estimate D2E/DX2         !
 ! A1    A(2,1,3)         117.9551  116.7316  108.8161 estimate D2E/DX2         !
 ! A2    A(2,1,4)         119.476   119.8109  111.8751 estimate D2E/DX2         !
 ! A3    A(2,1,13)        103.2927   93.9257  106.8527 estimate D2E/DX2         !
 ! A4    A(2,1,14)         90.1803   83.4363  106.7944 estimate D2E/DX2         !
 ! A5    A(3,1,4)         120.3497  120.3377  109.8993 estimate D2E/DX2         !
 ! A6    A(3,1,13)         69.6405   92.5765   51.946  estimate D2E/DX2         !
 ! A7    A(3,1,14)         91.3831   79.7017  108.0485 estimate D2E/DX2         !
 ! A8    A(4,1,13)         82.9613  100.9636   62.8176 estimate D2E/DX2         !
 ! A9    A(4,1,14)        103.0983   89.0783  111.2711 estimate D2E/DX2         !
 ! A10   A(1,4,5)         107.8792  105.942   110.0062 estimate D2E/DX2         !
 ! A11   A(1,4,6)         106.1056  109.7276  106.137  estimate D2E/DX2         !
 ! A12   A(1,4,7)         111.9939  112.5577  113.1795 estimate D2E/DX2         !
 ! A13   A(5,4,6)         107.1725  108.714   108.67   estimate D2E/DX2         !
 ! A14   A(5,4,7)         110.6285  109.589   111.2919 estimate D2E/DX2         !
 ! A15   A(6,4,7)         112.7692  110.1659  107.2968 estimate D2E/DX2         !
 ! A16   A(4,5,14)         97.6051  131.0932   63.9127 estimate D2E/DX2         !
 ! A17   A(4,6,13)        102.1518   73.3777  123.3733 estimate D2E/DX2         !
 ! A18   A(4,7,8)         109.202   109.1208  107.3581 estimate D2E/DX2         !
 ! A19   A(4,7,9)         108.455   108.0699  110.839  estimate D2E/DX2         !
 ! A20   A(4,7,10)        108.8439  112.9404  112.077  estimate D2E/DX2         !
 ! A21   A(8,7,9)         107.0148  107.1756  108.2144 estimate D2E/DX2         !
 ! A22   A(8,7,10)        112.1695  109.6341  107.6793 estimate D2E/DX2         !
 ! A23   A(9,7,10)        111.0709  109.7252  110.4944 estimate D2E/DX2         !
 ! A24   A(7,8,13)        112.1484   94.1015  117.2541 estimate D2E/DX2         !
 ! A25   A(7,10,11)       106.2566  109.4289  110.4513 estimate D2E/DX2         !
 ! A26   A(7,10,12)       110.1741  109.4981  107.6352 estimate D2E/DX2         !
 ! A27   A(7,10,15)       113.887   113.4148  112.7138 estimate D2E/DX2         !
 ! A28   A(11,10,12)      104.8533  105.8363  107.3909 estimate D2E/DX2         !
 ! A29   A(11,10,15)      109.4628  109.2226  109.8818 estimate D2E/DX2         !
 ! A30   A(12,10,15)      111.669   109.1607  108.5835 estimate D2E/DX2         !
 ! A31   A(6,13,8)         58.1547   59.2505   52.242  estimate D2E/DX2         !
 ! A32   A(10,15,16)      113.8944  109.0234  107.7574 estimate D2E/DX2         !
 ! A33   A(10,15,17)      106.7886  109.0186  109.7776 estimate D2E/DX2         !
 ! A34   A(10,15,18)      114.0684  112.8765  112.6734 estimate D2E/DX2         !
 ! A35   A(16,15,17)      103.851   105.8279  106.5215 estimate D2E/DX2         !
 ! A36   A(16,15,18)      111.1586  109.9221  109.8413 estimate D2E/DX2         !
 ! A37   A(17,15,18)      106.1264  109.9228  110.0592 estimate D2E/DX2         !
 ! A38   A(15,18,19)      113.5222  110.8148  110.3482 estimate D2E/DX2         !
 ! A39   A(15,18,20)      111.1859  112.3837  112.3464 estimate D2E/DX2         !
 ! A40   A(15,18,21)      109.6221  110.8038  111.0705 estimate D2E/DX2         !
 ! A41   A(19,18,20)      110.352   107.7536  107.7823 estimate D2E/DX2         !
 ! A42   A(19,18,21)      109.881   107.142   107.364  estimate D2E/DX2         !
 ! A43   A(20,18,21)      101.6266  107.7267  107.7306 estimate D2E/DX2         !
 ! D1    D(2,1,4,5)       -54.1486  -55.0091  -59.4679 estimate D2E/DX2         !
 ! D2    D(2,1,4,6)        60.4368   62.1792   57.9188 estimate D2E/DX2         !
 ! D3    D(2,1,4,7)      -176.1227 -174.7597  175.3435 estimate D2E/DX2         !
 ! D4    D(3,1,4,5)       143.1174  104.3783  179.5374 estimate D2E/DX2         !
 ! D5    D(3,1,4,6)      -102.2971 -138.4334  -63.0759 estimate D2E/DX2         !
 ! D6    D(3,1,4,7)        21.1434  -15.3722   54.3488 estimate D2E/DX2         !
 ! D7    D(13,1,4,5)     -155.471  -156.0416 -157.8057 estimate D2E/DX2         !
 ! D8    D(13,1,4,6)      -40.8855  -38.8533  -40.419  estimate D2E/DX2         !
 ! D9    D(13,1,4,7)       82.555    84.2079   77.0057 estimate D2E/DX2         !
 ! D10   D(14,1,4,5)       43.6229   26.8865   59.9004 estimate D2E/DX2         !
 ! D11   D(14,1,4,6)      158.2084  144.0748  177.2871 estimate D2E/DX2         !
 ! D12   D(14,1,4,7)      -78.3511  -92.864   -65.2882 estimate D2E/DX2         !
 ! D13   D(1,4,5,14)      -38.2784  -42.4517  -28.1478 estimate D2E/DX2         !
 ! D14   D(6,4,5,14)     -152.1555 -160.3181 -143.9484 estimate D2E/DX2         !
 ! D15   D(7,4,5,14)       84.5352   79.2246   98.1138 estimate D2E/DX2         !
 ! D16   D(1,4,6,13)       46.0492   23.4788   78.2875 estimate D2E/DX2         !
 ! D17   D(5,4,6,13)      161.1171  138.9181 -163.4376 estimate D2E/DX2         !
 ! D18   D(7,4,6,13)      -76.9033 -100.9819  -42.9956 estimate D2E/DX2         !
 ! D19   D(1,4,7,8)       -52.0275  -57.6194  -52.6088 estimate D2E/DX2         !
 ! D20   D(1,4,7,9)        64.2606   58.604    65.3859 estimate D2E/DX2         !
 ! D21   D(1,4,7,10)     -174.7839 -179.8217 -170.6517 estimate D2E/DX2         !
 ! D22   D(5,4,7,8)      -172.4145 -175.2336 -177.1013 estimate D2E/DX2         !
 ! D23   D(5,4,7,9)       -56.1264  -59.0102  -59.1066 estimate D2E/DX2         !
 ! D24   D(5,4,7,10)       64.8291   62.5641   64.8558 estimate D2E/DX2         !
 ! D25   D(6,4,7,8)        67.5761   65.1962   64.1348 estimate D2E/DX2         !
 ! D26   D(6,4,7,9)      -176.1358 -178.5803 -177.8705 estimate D2E/DX2         !
 ! D27   D(6,4,7,10)      -55.1803  -57.0061  -53.9082 estimate D2E/DX2         !
 ! D28   D(4,6,13,8)       43.3837   61.4617   15.8535 estimate D2E/DX2         !
 ! D29   D(4,7,8,13)      -15.2273   14.3574  -53.7867 estimate D2E/DX2         !
 ! D30   D(9,7,8,13)     -132.4294 -102.4356 -173.472  estimate D2E/DX2         !
 ! D31   D(10,7,8,13)     105.5188  138.5296   67.0729 estimate D2E/DX2         !
 ! D32   D(4,7,10,11)     -54.7939  -56.8755  -63.9909 estimate D2E/DX2         !
 ! D33   D(4,7,10,12)      58.2609   58.7104   52.963  estimate D2E/DX2         !
 ! D34   D(4,7,10,15)    -175.3728 -179.0971  172.6713 estimate D2E/DX2         !
 ! D35   D(8,7,10,11)    -175.7468 -178.7895  178.1573 estimate D2E/DX2         !
 ! D36   D(8,7,10,12)     -62.6919  -63.2036  -64.8888 estimate D2E/DX2         !
 ! D37   D(8,7,10,15)      63.6744   58.9889   54.8195 estimate D2E/DX2         !
 ! D38   D(9,7,10,11)      64.5431   63.7594   60.1637 estimate D2E/DX2         !
 ! D39   D(9,7,10,12)     177.598   179.3454  177.1176 estimate D2E/DX2         !
 ! D40   D(9,7,10,15)     -56.0358  -58.4621  -63.1741 estimate D2E/DX2         !
 ! D41   D(7,8,13,6)      -10.5592  -44.1554   26.644  estimate D2E/DX2         !
 ! D42   D(7,10,15,16)    -53.6429  -57.1564  -58.4206 estimate D2E/DX2         !
 ! D43   D(7,10,15,17)     60.3834   57.9314   57.204  estimate D2E/DX2         !
 ! D44   D(7,10,15,18)    177.288  -179.6138 -179.755  estimate D2E/DX2         !
 ! D45   D(11,10,15,16)  -172.4082 -179.4925  177.9256 estimate D2E/DX2         !
 ! D46   D(11,10,15,17)   -58.3819  -64.4047  -66.4498 estimate D2E/DX2         !
 ! D47   D(11,10,15,18)    58.5227   58.0501   56.5912 estimate D2E/DX2         !
 ! D48   D(12,10,15,16)    71.936    65.2234   60.7381 estimate D2E/DX2         !
 ! D49   D(12,10,15,17)  -174.0378 -179.6888  176.3627 estimate D2E/DX2         !
 ! D50   D(12,10,15,18)   -57.1332  -57.234   -60.5963 estimate D2E/DX2         !
 ! D51   D(10,15,18,19)    64.2177   59.4408   59.3783 estimate D2E/DX2         !
 ! D52   D(10,15,18,20)  -170.6471 -179.938   179.685  estimate D2E/DX2         !
 ! D53   D(10,15,18,21)   -59.0763  -59.359   -59.5685 estimate D2E/DX2         !
 ! D54   D(16,15,18,19)   -66.2159  -62.5121  -60.7631 estimate D2E/DX2         !
 ! D55   D(16,15,18,20)    58.9193   58.1091   59.5436 estimate D2E/DX2         !
 ! D56   D(16,15,18,21)   170.4902  178.6881 -179.7099 estimate D2E/DX2         !
 ! D57   D(17,15,18,19)  -178.4953 -178.612  -177.7381 estimate D2E/DX2         !
 ! D58   D(17,15,18,20)   -53.3601  -57.9908  -57.4313 estimate D2E/DX2         !
 ! D59   D(17,15,18,21)    58.2107   62.5882   63.3151 estimate D2E/DX2         !
 --------------------------------------------------------------------------------
 Trust Radius=3.00D-01 FncErr=1.00D-07 GrdErr=1.00D-06
 Number of steps in this run=    126 maximum allowed number of steps=    126.
 Search for a saddle point of order  1.
 GradGradGradGradGradGradGradGradGradGradGradGradGradGradGradGradGradGrad

                          Input orientation:                          
 ---------------------------------------------------------------------
 Center     Atomic      Atomic             Coordinates (Angstroms)
 Number     Number       Type             X           Y           Z
 ---------------------------------------------------------------------
      1          6           0       -2.003232   -0.466396    0.124223
      2          1           0       -2.860426   -0.630468    0.766650
      3          1           0       -2.084812   -0.758330   -0.915948
      4          6           0       -0.656565   -0.217509    0.738730
      5          1           0       -0.755483    0.619172    1.437459
      6          1           0       -0.424546   -1.105964    1.330256
      7          6           0        0.391538    0.080571   -0.301052
      8          1           0        0.377113   -0.712182   -1.068609
      9          1           0        0.125415    1.018424   -0.803316
     10          6           0        1.738474    0.191388    0.380307
     11          1           0        1.622539    0.947033    1.170121
     12          1           0        1.970703   -0.739418    0.913387
     13         17           0       -1.014618   -2.943919   -0.233261
     14          9           0       -3.120895    2.672637   -0.583476
     15          6           0        2.863709    0.600030   -0.547952
     16          1           0        2.957434   -0.032929   -1.437094
     17          1           0        2.598696    1.583969   -0.952918
     18          6           0        4.200792    0.775212    0.141868
     19          1           0        4.594508   -0.149394    0.571228
     20          1           0        4.935348    1.225170   -0.529517
     21          1           0        4.115547    1.539642    0.919492
 ---------------------------------------------------------------------
                    Distance matrix (angstroms):
                    1          2          3          4          5
     1  C    0.000000
     2  H    1.083704   0.000000
     3  H    1.083437   1.857165   0.000000
     4  C    1.501024   2.242391   2.251740   0.000000
     5  H    2.111853   2.538183   3.033669   1.094551   0.000000
     6  H    2.087058   2.545046   2.814741   1.092285   1.759860
     7  C    2.492981   3.495831   2.685919   1.506161   2.151318
     8  H    2.673818   3.722434   2.467086   2.140016   3.055431
     9  H    2.756112   3.754848   2.838070   2.125307   2.440585
    10  C    3.807705   4.687706   4.147259   2.455988   2.742333
    11  H    4.029627   4.769515   4.583055   2.595491   2.415357
    12  H    4.060724   4.834585   4.449047   2.684294   3.090713
    13  Cl   2.691332   3.123921   2.527484   2.916553   3.943865
    14  F    3.406397   3.577874   3.599380   4.021703   3.727743
    15  C    5.027544   6.000669   5.144747   3.836177   4.128047
    16  H    5.218602   6.249883   5.120746   4.222472   4.740679
    17  H    5.151890   6.136991   5.236695   4.087019   4.230278
    18  C    6.327070   7.226831   6.555878   4.993562   5.125189
    19  H    6.620459   7.472996   6.869921   5.254186   5.473888
    20  H    7.171657   8.117730   7.305221   5.912637   6.051594
    21  H    6.488150   7.307321   6.862504   5.088547   4.984223
                    6          7          8          9         10
     6  H    0.000000
     7  C    2.176011   0.000000
     8  H    2.559742   1.103544   0.000000
     9  H    3.060655   1.096658   1.768822   0.000000
    10  C    2.695214   1.513528   2.183827   2.164928   0.000000
    11  H    2.903618   2.104868   3.052211   2.478090   1.099203
    12  H    2.458730   2.154299   2.543340   3.072810   1.097499
    13  Cl   2.484120   3.336077   2.759596   4.162307   4.217360
    14  F    5.021005   4.374443   4.891668   3.650106   5.540662
    15  C    4.153397   2.538194   2.859396   2.781820   1.514863
    16  H    4.499713   2.808433   2.693551   3.086641   2.199802
    17  H    4.646355   2.748941   3.197049   2.541524   2.111102
    18  C    5.132722   3.897322   4.277630   4.190612   2.541794
    19  H    5.165467   4.298687   4.559848   4.819332   2.882623
    20  H    6.133629   4.691323   4.982114   4.822154   3.480875
    21  H    5.270711   4.181729   4.795742   4.377315   2.785495
                   11         12         13         14         15
    11  H    0.000000
    12  H    1.741048   0.000000
    13  Cl   4.905465   3.884169   0.000000
    14  F    5.343498   6.309285   6.008723   0.000000
    15  C    2.147718   2.174188   5.263082   6.333439   0.000000
    16  H    3.088664   2.645284   5.069544   6.707819   1.095443
    17  H    2.421955   3.045586   5.837440   5.833987   1.096524
    18  C    2.781046   2.804040   6.416632   7.598253   1.514705
    19  H    3.223884   2.711006   6.318138   8.296062   2.193140
    20  H    3.733743   3.838059   7.271257   8.185421   2.163984
    21  H    2.574702   3.129617   6.910119   7.477211   2.145544
                   16         17         18         19         20
    16  H    0.000000
    17  H    1.725537   0.000000
    18  C    2.166138   2.102226   0.000000
    19  H    2.593633   3.051365   1.092821   0.000000
    20  H    2.513694   2.401655   1.092151   1.793666   0.000000
    21  H    3.060670   2.410129   1.093763   1.789841   1.694283
                   21
    21  H    0.000000
 Stoichiometry    C6H13ClF(1-)
 Framework group  C1[X(C6H13ClF)]
 Deg. of freedom    57
 Full point group                 C1      NOp   1
 Largest Abelian subgroup         C1      NOp   1
 Largest concise Abelian subgroup C1      NOp   1
                         Standard orientation:                         
 ---------------------------------------------------------------------
 Center     Atomic      Atomic             Coordinates (Angstroms)
 Number     Number       Type             X           Y           Z
 ---------------------------------------------------------------------
      1          6           0       -2.149374    0.171063    0.254588
      2          1           0       -3.003525    0.144530    0.921024
      3          1           0       -2.314889   -0.053247   -0.792372
      4          6           0       -0.763071    0.131498    0.828758
      5          1           0       -0.679956    0.939648    1.562262
      6          1           0       -0.688878   -0.810396    1.376863
      7          6           0        0.292764    0.270890   -0.236279
      8          1           0        0.104916   -0.469540   -1.032699
      9          1           0        0.197113    1.263731   -0.692106
     10          6           0        1.654776    0.092879    0.399334
     11          1           0        1.708255    0.820723    1.221301
     12          1           0        1.719399   -0.887978    0.887439
     13         17           0       -1.664346   -2.430799   -0.233606
     14          9           0       -2.664513    3.493823   -0.290786
     15          6           0        2.810634    0.321045   -0.552896
     16          1           0        2.756050   -0.277815   -1.468528
     17          1           0        2.727666    1.354524   -0.909831
     18          6           0        4.175551    0.207655    0.093998
     19          1           0        4.396846   -0.793210    0.472886
     20          1           0        4.963341    0.539188   -0.585903
     21          1           0        4.260477    0.938819    0.903012
 ---------------------------------------------------------------------
 Rotational constants (GHZ):      1.0465141      0.6634776      0.4287449
 Standard basis: Aug-CC-pVTZ (5D, 7F)
 There are   769 symmetry adapted cartesian basis functions of A   symmetry.
 There are   671 symmetry adapted basis functions of A   symmetry.
   671 basis functions,   969 primitive gaussians,   769 cartesian basis functions
    38 alpha electrons       38 beta electrons
       nuclear repulsion energy       413.5458350525 Hartrees.
 NAtoms=   21 NActive=   21 NUniq=   21 SFac= 1.00D+00 NAtFMM=   60 NAOKFM=F Big=F
 Integral buffers will be    131072 words long.
 Raffenetti 2 integral format.
 Two-electron integral symmetry is turned on.
 One-electron integrals computed using PRISM.
 NBasis=   671 RedAO= T EigKep=  3.01D-06  NBF=   671
 NBsUse=   671 1.00D-06 EigRej= -1.00D+00 NBFU=   671
 ExpMin= 2.53D-02 ExpMax= 4.56D+05 ExpMxC= 1.44D+03 IAcc=3 IRadAn=         5 AccDes= 0.00D+00
 Harris functional with IExCor= 1009 and IRadAn=       5 diagonalized for initial guess.
 HarFok:  IExCor= 1009 AccDes= 0.00D+00 IRadAn=         5 IDoV= 1 UseB2=F ITyADJ=14
 ICtDFT=  3500011 ScaDFX=  1.000000  1.000000  1.000000  1.000000
 FoFCou: FMM=F IPFlag=           0 FMFlag=      100000 FMFlg1=           0
         NFxFlg=           0 DoJE=T BraDBF=F KetDBF=T FulRan=T
         wScrn=  0.000000 ICntrl=     500 IOpCl=  0 I1Cent=   200000004 NGrid=           0
         NMat0=    1 NMatS0=      1 NMatT0=    0 NMatD0=    1 NMtDS0=    0 NMtDT0=    0
 Petite list used in FoFCou.
 Requested convergence on RMS density matrix=1.00D-08 within 128 cycles.
 Requested convergence on MAX density matrix=1.00D-06.
 Requested convergence on             energy=1.00D-06.
 No special actions if energy rises.
 EnCoef did     4 forward-backward iterations
 EnCoef did     1 forward-backward iterations
 SCF Done:  E(RM06) =  -796.363599140     A.U. after   19 cycles
            NFock= 19  Conv=0.82D-08     -V/T= 2.0046

 **********************************************************************

            Population analysis using the SCF density.

 **********************************************************************

 Orbital symmetries:
       Occupied  (A) (A) (A) (A) (A) (A) (A) (A) (A) (A) (A) (A)
                 (A) (A) (A) (A) (A) (A) (A) (A) (A) (A) (A) (A)
                 (A) (A) (A) (A) (A) (A) (A) (A) (A) (A) (A) (A)
                 (A) (A)
       Virtual   (A) (A) (A) (A) (A) (A) (A) (A) (A) (A) (A) (A)
                 (A) (A) (A) (A) (A) (A) (A) (A) (A) (A) (A) (A)
                 (A) (A) (A) (A) (A) (A) (A) (A) (A) (A) (A) (A)
                 (A) (A) (A) (A) (A) (A) (A) (A) (A) (A) (A) (A)
                 (A) (A) (A) (A) (A) (A) (A) (A) (A) (A) (A) (A)
                 (A) (A) (A) (A) (A) (A) (A) (A) (A) (A) (A) (A)
                 (A) (A) (A) (A) (A) (A) (A) (A) (A) (A) (A) (A)
                 (A) (A) (A) (A) (A) (A) (A) (A) (A) (A) (A) (A)
                 (A) (A) (A) (A) (A) (A) (A) (A) (A) (A) (A) (A)
                 (A) (A) (A) (A) (A) (A) (A) (A) (A) (A) (A) (A)
                 (A) (A) (A) (A) (A) (A) (A) (A) (A) (A) (A) (A)
                 (A) (A) (A) (A) (A) (A) (A) (A) (A) (A) (A) (A)
                 (A) (A) (A) (A) (A) (A) (A) (A) (A) (A) (A) (A)
                 (A) (A) (A) (A) (A) (A) (A) (A) (A) (A) (A) (A)
                 (A) (A) (A) (A) (A) (A) (A) (A) (A) (A) (A) (A)
                 (A) (A) (A) (A) (A) (A) (A) (A) (A) (A) (A) (A)
                 (A) (A) (A) (A) (A) (A) (A) (A) (A) (A) (A) (A)
                 (A) (A) (A) (A) (A) (A) (A) (A) (A) (A) (A) (A)
                 (A) (A) (A) (A) (A) (A) (A) (A) (A) (A) (A) (A)
                 (A) (A) (A) (A) (A) (A) (A) (A) (A) (A) (A) (A)
                 (A) (A) (A) (A) (A) (A) (A) (A) (A) (A) (A) (A)
                 (A) (A) (A) (A) (A) (A) (A) (A) (A) (A) (A) (A)
                 (A) (A) (A) (A) (A) (A) (A) (A) (A) (A) (A) (A)
                 (A) (A) (A) (A) (A) (A) (A) (A) (A) (A) (A) (A)
                 (A) (A) (A) (A) (A) (A) (A) (A) (A) (A) (A) (A)
                 (A) (A) (A) (A) (A) (A) (A) (A) (A) (A) (A) (A)
                 (A) (A) (A) (A) (A) (A) (A) (A) (A) (A) (A) (A)
                 (A) (A) (A) (A) (A) (A) (A) (A) (A) (A) (A) (A)
                 (A) (A) (A) (A) (A) (A) (A) (A) (A) (A) (A) (A)
                 (A) (A) (A) (A) (A) (A) (A) (A) (A) (A) (A) (A)
                 (A) (A) (A) (A) (A) (A) (A) (A) (A) (A) (A) (A)
                 (A) (A) (A) (A) (A) (A) (A) (A) (A) (A) (A) (A)
                 (A) (A) (A) (A) (A) (A) (A) (A) (A) (A) (A) (A)
                 (A) (A) (A) (A) (A) (A) (A) (A) (A) (A) (A) (A)
                 (A) (A) (A) (A) (A) (A) (A) (A) (A) (A) (A) (A)
                 (A) (A) (A) (A) (A) (A) (A) (A) (A) (A) (A) (A)
                 (A) (A) (A) (A) (A) (A) (A) (A) (A) (A) (A) (A)
                 (A) (A) (A) (A) (A) (A) (A) (A) (A) (A) (A) (A)
                 (A) (A) (A) (A) (A) (A) (A) (A) (A) (A) (A) (A)
                 (A) (A) (A) (A) (A) (A) (A) (A) (A) (A) (A) (A)
                 (A) (A) (A) (A) (A) (A) (A) (A) (A) (A) (A) (A)
                 (A) (A) (A) (A) (A) (A) (A) (A) (A) (A) (A) (A)
                 (A) (A) (A) (A) (A) (A) (A) (A) (A) (A) (A) (A)
                 (A) (A) (A) (A) (A) (A) (A) (A) (A) (A) (A) (A)
                 (A) (A) (A) (A) (A) (A) (A) (A) (A) (A) (A) (A)
                 (A) (A) (A) (A) (A) (A) (A) (A) (A) (A) (A) (A)
                 (A) (A) (A) (A) (A) (A) (A) (A) (A) (A) (A) (A)
                 (A) (A) (A) (A) (A) (A) (A) (A) (A) (A) (A) (A)
                 (A) (A) (A) (A) (A) (A) (A) (A) (A) (A) (A) (A)
                 (A) (A) (A) (A) (A) (A) (A) (A) (A) (A) (A) (A)
                 (A) (A) (A) (A) (A) (A) (A) (A) (A) (A) (A) (A)
                 (A) (A) (A) (A) (A) (A) (A) (A) (A) (A) (A) (A)
                 (A) (A) (A) (A) (A) (A) (A) (A) (A)
 The electronic state is 1-A.
 Alpha  occ. eigenvalues -- -101.53778 -24.42709 -10.23430 -10.15218 -10.15087
 Alpha  occ. eigenvalues --  -10.14957 -10.14269 -10.13145  -9.38658  -7.09528
 Alpha  occ. eigenvalues --   -7.09148  -7.09132  -0.82122  -0.73916  -0.70548
 Alpha  occ. eigenvalues --   -0.64274  -0.61945  -0.56409  -0.50916  -0.49859
 Alpha  occ. eigenvalues --   -0.40196  -0.38485  -0.36931  -0.35988  -0.33001
 Alpha  occ. eigenvalues --   -0.32439  -0.30860  -0.27968  -0.26190  -0.25603
 Alpha  occ. eigenvalues --   -0.24462  -0.23906  -0.15953  -0.14650  -0.14390
 Alpha  occ. eigenvalues --   -0.08615  -0.08598  -0.08572
 Alpha virt. eigenvalues --   -0.00260   0.02807   0.04550   0.04917   0.05615
 Alpha virt. eigenvalues --    0.06454   0.07242   0.07622   0.08082   0.08781
 Alpha virt. eigenvalues --    0.09041   0.09341   0.09999   0.11177   0.11399
 Alpha virt. eigenvalues --    0.11713   0.12082   0.12791   0.13335   0.14239
 Alpha virt. eigenvalues --    0.14365   0.14449   0.15239   0.15648   0.16344
 Alpha virt. eigenvalues --    0.16428   0.16785   0.17134   0.17408   0.17896
 Alpha virt. eigenvalues --    0.18066   0.18407   0.19208   0.19450   0.20143
 Alpha virt. eigenvalues --    0.20633   0.20994   0.21407   0.22284   0.22677
 Alpha virt. eigenvalues --    0.23435   0.24395   0.24523   0.25000   0.25410
 Alpha virt. eigenvalues --    0.25895   0.26806   0.27420   0.27919   0.28018
 Alpha virt. eigenvalues --    0.28860   0.29118   0.29759   0.30144   0.30742
 Alpha virt. eigenvalues --    0.31420   0.31670   0.32044   0.32472   0.32674
 Alpha virt. eigenvalues --    0.32996   0.33171   0.33878   0.34153   0.34553
 Alpha virt. eigenvalues --    0.34786   0.35474   0.35623   0.36020   0.36124
 Alpha virt. eigenvalues --    0.36262   0.36411   0.36995   0.37116   0.37804
 Alpha virt. eigenvalues --    0.37841   0.38189   0.38716   0.38976   0.39512
 Alpha virt. eigenvalues --    0.39736   0.40224   0.40631   0.40734   0.41152
 Alpha virt. eigenvalues --    0.41419   0.41969   0.42196   0.43030   0.43223
 Alpha virt. eigenvalues --    0.43885   0.44351   0.44853   0.45087   0.45559
 Alpha virt. eigenvalues --    0.45891   0.46287   0.46843   0.47259   0.47595
 Alpha virt. eigenvalues --    0.48456   0.48473   0.48775   0.49446   0.49772
 Alpha virt. eigenvalues --    0.49919   0.50451   0.50837   0.51028   0.51689
 Alpha virt. eigenvalues --    0.52053   0.53065   0.53275   0.53681   0.54497
 Alpha virt. eigenvalues --    0.54877   0.55302   0.55826   0.56083   0.56990
 Alpha virt. eigenvalues --    0.58135   0.58500   0.59051   0.59668   0.59761
 Alpha virt. eigenvalues --    0.60649   0.60849   0.61722   0.62137   0.62864
 Alpha virt. eigenvalues --    0.63677   0.65250   0.65676   0.66086   0.66662
 Alpha virt. eigenvalues --    0.67995   0.68563   0.68862   0.70299   0.70693
 Alpha virt. eigenvalues --    0.71662   0.71749   0.71971   0.73054   0.73554
 Alpha virt. eigenvalues --    0.74746   0.75285   0.75960   0.76488   0.76933
 Alpha virt. eigenvalues --    0.77660   0.78276   0.78681   0.79575   0.79902
 Alpha virt. eigenvalues --    0.80575   0.81303   0.81665   0.81795   0.82341
 Alpha virt. eigenvalues --    0.82539   0.82768   0.83687   0.84037   0.84585
 Alpha virt. eigenvalues --    0.85357   0.85753   0.86762   0.87172   0.87985
 Alpha virt. eigenvalues --    0.88215   0.88316   0.89566   0.89643   0.90432
 Alpha virt. eigenvalues --    0.90445   0.91195   0.92533   0.92688   0.93221
 Alpha virt. eigenvalues --    0.93875   0.94288   0.94545   0.95583   0.95939
 Alpha virt. eigenvalues --    0.96688   0.97879   0.98493   0.98896   0.99381
 Alpha virt. eigenvalues --    0.99579   0.99847   1.00946   1.01346   1.01764
 Alpha virt. eigenvalues --    1.02290   1.02978   1.03628   1.03685   1.03819
 Alpha virt. eigenvalues --    1.04293   1.05173   1.05339   1.06106   1.06628
 Alpha virt. eigenvalues --    1.06719   1.07796   1.08235   1.08819   1.09153
 Alpha virt. eigenvalues --    1.09637   1.09922   1.10418   1.10706   1.11394
 Alpha virt. eigenvalues --    1.12056   1.13074   1.13363   1.14472   1.15069
 Alpha virt. eigenvalues --    1.15432   1.15971   1.16755   1.17300   1.17543
 Alpha virt. eigenvalues --    1.18432   1.18733   1.19051   1.20054   1.20256
 Alpha virt. eigenvalues --    1.20694   1.21409   1.21678   1.22443   1.23771
 Alpha virt. eigenvalues --    1.24556   1.25279   1.25656   1.26954   1.27004
 Alpha virt. eigenvalues --    1.28572   1.30046   1.30121   1.30842   1.31620
 Alpha virt. eigenvalues --    1.33019   1.33698   1.34241   1.35447   1.36182
 Alpha virt. eigenvalues --    1.36533   1.37657   1.39236   1.39985   1.41115
 Alpha virt. eigenvalues --    1.42121   1.42928   1.43399   1.43971   1.44561
 Alpha virt. eigenvalues --    1.45919   1.45944   1.46909   1.47470   1.48094
 Alpha virt. eigenvalues --    1.48962   1.49440   1.49864   1.50626   1.51322
 Alpha virt. eigenvalues --    1.51592   1.53181   1.53467   1.53737   1.55189
 Alpha virt. eigenvalues --    1.55761   1.56912   1.57517   1.57744   1.57990
 Alpha virt. eigenvalues --    1.58861   1.59270   1.60616   1.61475   1.61691
 Alpha virt. eigenvalues --    1.62422   1.62875   1.63819   1.64025   1.64768
 Alpha virt. eigenvalues --    1.65533   1.65935   1.66386   1.67158   1.68008
 Alpha virt. eigenvalues --    1.68330   1.69143   1.69500   1.70038   1.70856
 Alpha virt. eigenvalues --    1.72207   1.72809   1.72943   1.73555   1.74455
 Alpha virt. eigenvalues --    1.75541   1.77133   1.77571   1.77942   1.79152
 Alpha virt. eigenvalues --    1.79462   1.79972   1.80810   1.83032   1.83404
 Alpha virt. eigenvalues --    1.83843   1.85185   1.85787   1.86310   1.87660
 Alpha virt. eigenvalues --    1.88085   1.90554   1.91633   1.93573   1.93992
 Alpha virt. eigenvalues --    1.94092   1.95593   1.95861   1.98174   1.98497
 Alpha virt. eigenvalues --    1.99514   2.00054   2.01683   2.02497   2.03310
 Alpha virt. eigenvalues --    2.03762   2.04569   2.05740   2.06292   2.07599
 Alpha virt. eigenvalues --    2.08630   2.10658   2.10684   2.11724   2.12717
 Alpha virt. eigenvalues --    2.14714   2.15669   2.17040   2.17475   2.18093
 Alpha virt. eigenvalues --    2.20057   2.20788   2.21844   2.22963   2.25351
 Alpha virt. eigenvalues --    2.25622   2.26765   2.28744   2.29474   2.31057
 Alpha virt. eigenvalues --    2.33554   2.35060   2.35859   2.38191   2.40681
 Alpha virt. eigenvalues --    2.41301   2.49362   2.50629   2.52480   2.52753
 Alpha virt. eigenvalues --    2.55023   2.57565   2.60629   2.61386   2.63522
 Alpha virt. eigenvalues --    2.66422   2.68039   2.69311   2.73115   2.77671
 Alpha virt. eigenvalues --    2.78616   2.81831   2.85298   2.89865   2.90989
 Alpha virt. eigenvalues --    2.91199   2.92234   2.93853   2.94074   2.95273
 Alpha virt. eigenvalues --    2.96040   2.96551   2.96696   2.97445   2.98819
 Alpha virt. eigenvalues --    2.99388   3.00367   3.01296   3.02615   3.06910
 Alpha virt. eigenvalues --    3.07235   3.09137   3.10423   3.11043   3.13586
 Alpha virt. eigenvalues --    3.14827   3.15685   3.16461   3.17411   3.18233
 Alpha virt. eigenvalues --    3.19626   3.20199   3.21253   3.22805   3.24162
 Alpha virt. eigenvalues --    3.24635   3.24912   3.26879   3.27869   3.28310
 Alpha virt. eigenvalues --    3.29284   3.30870   3.31529   3.31808   3.33881
 Alpha virt. eigenvalues --    3.34996   3.36340   3.36625   3.38529   3.39617
 Alpha virt. eigenvalues --    3.40840   3.41636   3.43610   3.43892   3.44644
 Alpha virt. eigenvalues --    3.45544   3.46074   3.47566   3.48349   3.50073
 Alpha virt. eigenvalues --    3.50968   3.52593   3.54157   3.55438   3.56209
 Alpha virt. eigenvalues --    3.57393   3.58434   3.59088   3.60657   3.61857
 Alpha virt. eigenvalues --    3.63061   3.63634   3.64866   3.65512   3.67569
 Alpha virt. eigenvalues --    3.68307   3.69751   3.70320   3.71209   3.71460
 Alpha virt. eigenvalues --    3.73288   3.74395   3.76604   3.77250   3.77624
 Alpha virt. eigenvalues --    3.78172   3.79433   3.81224   3.83868   3.84208
 Alpha virt. eigenvalues --    3.84945   3.88364   3.88494   3.90725   3.92279
 Alpha virt. eigenvalues --    3.92864   3.95055   3.95814   3.97340   3.98189
 Alpha virt. eigenvalues --    3.99912   4.00566   4.02407   4.04830   4.05723
 Alpha virt. eigenvalues --    4.06372   4.07750   4.09979   4.11057   4.13205
 Alpha virt. eigenvalues --    4.14521   4.15419   4.16840   4.17872   4.19515
 Alpha virt. eigenvalues --    4.22164   4.23419   4.24661   4.25866   4.27073
 Alpha virt. eigenvalues --    4.28476   4.30513   4.32691   4.33992   4.35288
 Alpha virt. eigenvalues --    4.37337   4.38299   4.39630   4.41265   4.43655
 Alpha virt. eigenvalues --    4.44786   4.45420   4.46293   4.47661   4.49726
 Alpha virt. eigenvalues --    4.50393   4.51908   4.53133   4.54356   4.56395
 Alpha virt. eigenvalues --    4.57397   4.59002   4.60105   4.61299   4.62329
 Alpha virt. eigenvalues --    4.63489   4.65496   4.68004   4.68725   4.69561
 Alpha virt. eigenvalues --    4.71987   4.74125   4.76217   4.79405   4.80941
 Alpha virt. eigenvalues --    4.82531   4.83237   4.83951   4.85080   4.86858
 Alpha virt. eigenvalues --    4.88614   4.88871   4.91943   4.92928   4.94267
 Alpha virt. eigenvalues --    4.95198   4.96211   4.97262   4.98608   4.99513
 Alpha virt. eigenvalues --    5.00729   5.01208   5.05147   5.06632   5.07782
 Alpha virt. eigenvalues --    5.08261   5.10338   5.10796   5.11455   5.12792
 Alpha virt. eigenvalues --    5.14078   5.14380   5.17239   5.18545   5.19267
 Alpha virt. eigenvalues --    5.20425   5.22574   5.24011   5.25309   5.27693
 Alpha virt. eigenvalues --    5.28937   5.30668   5.31373   5.32500   5.33984
 Alpha virt. eigenvalues --    5.36674   5.38166   5.40502   5.43909   5.47112
 Alpha virt. eigenvalues --    5.48010   5.49216   5.53513   5.54368   5.55078
 Alpha virt. eigenvalues --    5.58116   5.62774   5.64839   5.66560   5.68450
 Alpha virt. eigenvalues --    5.70028   5.71207   5.73906   5.77325   5.77857
 Alpha virt. eigenvalues --    5.79160   5.81192   5.84702   5.89977   5.92875
 Alpha virt. eigenvalues --    5.97397   6.07354   6.15728   6.19351   6.28625
 Alpha virt. eigenvalues --    6.31545   6.32461   6.37307   6.45550   6.49308
 Alpha virt. eigenvalues --    6.50997   6.57760   6.69729   6.85284   8.64776
 Alpha virt. eigenvalues --    8.64924   8.65117   8.65878   8.66153   8.67093
 Alpha virt. eigenvalues --    8.67776   9.15210   9.17160   9.21430   9.24382
 Alpha virt. eigenvalues --    9.26655  10.90953  16.21202  17.19193  17.45951
 Alpha virt. eigenvalues --   17.78203  18.11473  18.61172
          Condensed to atoms (all electrons):
               1          2          3          4          5          6
     1  C   10.719721  -0.254426  -0.260689  -1.189396  -0.361651   0.080667
     2  H   -0.254426   0.507082  -0.198867   0.106278  -0.040297  -0.012923
     3  H   -0.260689  -0.198867   0.526085  -0.044945   0.103911  -0.044868
     4  C   -1.189396   0.106278  -0.044945  11.149469  -0.566633  -0.392223
     5  H   -0.361651  -0.040297   0.103911  -0.566633   1.301186  -0.476995
     6  H    0.080667  -0.012923  -0.044868  -0.392223  -0.476995   1.036636
     7  C   -0.075570   0.096052   0.031873  -1.746061   0.029979   0.208404
     8  H   -0.182089   0.003099  -0.008736   0.215536   0.134318  -0.138562
     9  H   -0.045308   0.021893  -0.122862   0.023900  -0.260091   0.166989
    10  C   -0.315575   0.003444   0.041092   0.193653  -0.038539   0.031063
    11  H   -0.015175   0.001198   0.005728   0.026871   0.023612  -0.093899
    12  H    0.002042   0.001710  -0.000932  -0.042335  -0.066277  -0.040606
    13  Cl   0.010969  -0.009884   0.109913  -0.174047   0.079283  -0.171648
    14  F   -0.038932   0.012464   0.011874   0.008112   0.032076  -0.008951
    15  C   -0.093819   0.001232   0.014292  -0.345126   0.039570   0.003962
    16  H    0.009661   0.000189   0.002321   0.023347   0.002473  -0.001560
    17  H    0.004736   0.000528   0.002678   0.014329   0.009869  -0.004137
    18  C   -0.004900  -0.000432   0.000899  -0.132995  -0.001415   0.005770
    19  H   -0.000552   0.000053  -0.000187   0.005734  -0.000420   0.002966
    20  H    0.000709  -0.000049   0.000274   0.004975   0.000272   0.000810
    21  H    0.001006   0.000198  -0.000445   0.008206   0.001910   0.000746
               7          8          9         10         11         12
     1  C   -0.075570  -0.182089  -0.045308  -0.315575  -0.015175   0.002042
     2  H    0.096052   0.003099   0.021893   0.003444   0.001198   0.001710
     3  H    0.031873  -0.008736  -0.122862   0.041092   0.005728  -0.000932
     4  C   -1.746061   0.215536   0.023900   0.193653   0.026871  -0.042335
     5  H    0.029979   0.134318  -0.260091  -0.038539   0.023612  -0.066277
     6  H    0.208404  -0.138562   0.166989   0.031063  -0.093899  -0.040606
     7  C   12.104378  -0.753349  -0.472869  -2.189047  -0.044436   0.129464
     8  H   -0.753349   0.783627  -0.193206   0.203529   0.145174  -0.122965
     9  H   -0.472869  -0.193206   1.110314  -0.035909  -0.130857   0.158451
    10  C   -2.189047   0.203529  -0.035909  12.041371  -0.198936  -0.860150
    11  H   -0.044436   0.145174  -0.130857  -0.198936   0.886709  -0.256109
    12  H    0.129464  -0.122965   0.158451  -0.860150  -0.256109   1.092686
    13  Cl  -0.049944   0.069935  -0.071491   0.048890   0.012463   0.000082
    14  F    0.002359   0.003417   0.002702   0.013853   0.000252   0.000572
    15  C    0.247677  -0.011657   0.061017  -2.020557  -0.130002   0.063123
    16  H    0.067758   0.020846  -0.087827   0.247061   0.114751  -0.123649
    17  H   -0.001746  -0.053847  -0.016089   0.185094  -0.149846   0.143439
    18  C   -0.289220  -0.000148   0.006979   0.085613   0.080261  -0.038840
    19  H    0.030026  -0.001276   0.004639  -0.006785  -0.044882  -0.008831
    20  H   -0.010148  -0.001524   0.003314   0.042435   0.000922   0.014505
    21  H    0.041955   0.002798  -0.002179  -0.050633  -0.000975  -0.055596
              13         14         15         16         17         18
     1  C    0.010969  -0.038932  -0.093819   0.009661   0.004736  -0.004900
     2  H   -0.009884   0.012464   0.001232   0.000189   0.000528  -0.000432
     3  H    0.109913   0.011874   0.014292   0.002321   0.002678   0.000899
     4  C   -0.174047   0.008112  -0.345126   0.023347   0.014329  -0.132995
     5  H    0.079283   0.032076   0.039570   0.002473   0.009869  -0.001415
     6  H   -0.171648  -0.008951   0.003962  -0.001560  -0.004137   0.005770
     7  C   -0.049944   0.002359   0.247677   0.067758  -0.001746  -0.289220
     8  H    0.069935   0.003417  -0.011657   0.020846  -0.053847  -0.000148
     9  H   -0.071491   0.002702   0.061017  -0.087827  -0.016089   0.006979
    10  C    0.048890   0.013853  -2.020557   0.247061   0.185094   0.085613
    11  H    0.012463   0.000252  -0.130002   0.114751  -0.149846   0.080261
    12  H    0.000082   0.000572   0.063123  -0.123649   0.143439  -0.038840
    13  Cl  17.860036   0.001716   0.006132   0.000395   0.003450  -0.003137
    14  F    0.001716   9.799296  -0.000280   0.000091   0.000512  -0.000127
    15  C    0.006132  -0.000280  12.146997  -0.633150  -0.107838  -2.343359
    16  H    0.000395   0.000091  -0.633150   0.630909  -0.103842  -0.173954
    17  H    0.003450   0.000512  -0.107838  -0.103842   0.592097  -0.206800
    18  C   -0.003137  -0.000127  -2.343359  -0.173954  -0.206800  12.631285
    19  H   -0.000904  -0.000011   0.173402  -0.007236   0.056678  -0.275450
    20  H    0.000192  -0.000034   0.124700  -0.038851  -0.001374  -0.043907
    21  H   -0.000671   0.000008   0.240019   0.085181  -0.039284  -0.314267
              19         20         21
     1  C   -0.000552   0.000709   0.001006
     2  H    0.000053  -0.000049   0.000198
     3  H   -0.000187   0.000274  -0.000445
     4  C    0.005734   0.004975   0.008206
     5  H   -0.000420   0.000272   0.001910
     6  H    0.002966   0.000810   0.000746
     7  C    0.030026  -0.010148   0.041955
     8  H   -0.001276  -0.001524   0.002798
     9  H    0.004639   0.003314  -0.002179
    10  C   -0.006785   0.042435  -0.050633
    11  H   -0.044882   0.000922  -0.000975
    12  H   -0.008831   0.014505  -0.055596
    13  Cl  -0.000904   0.000192  -0.000671
    14  F   -0.000011  -0.000034   0.000008
    15  C    0.173402   0.124700   0.240019
    16  H   -0.007236  -0.038851   0.085181
    17  H    0.056678  -0.001374  -0.039284
    18  C   -0.275450  -0.043907  -0.314267
    19  H    0.356330  -0.108910   0.039361
    20  H   -0.108910   0.394710  -0.081263
    21  H    0.039361  -0.081263   0.383668
 Mulliken charges:
               1
     1  C   -1.991429
     2  H    0.761459
     3  H    0.831591
     4  C   -1.146648
     5  H    1.053859
     6  H    0.848357
     7  C   -1.357535
     8  H    0.885082
     9  H    0.878491
    10  C   -1.420968
    11  H    0.767178
    12  H    1.010218
    13  Cl  -0.721728
    14  F   -0.840968
    15  C   -1.436334
    16  H    0.965086
    17  H    0.671392
    18  C   -2.981856
    19  H    0.786253
    20  H    0.698240
    21  H    0.740258
 Sum of Mulliken charges =  -1.00000
 Mulliken charges with hydrogens summed into heavy atoms:
               1
     1  C   -0.398379
     4  C    0.755569
     7  C    0.406039
    10  C    0.356429
    13  Cl  -0.721728
    14  F   -0.840968
    15  C    0.200144
    18  C   -0.757105
 Electronic spatial extent (au):  <R**2>=           2543.9520
 Charge=             -1.0000 electrons
 Dipole moment (field-independent basis, Debye):
    X=             10.8739    Y=             -6.2254    Z=              2.3652  Tot=             12.7511
 Quadrupole moment (field-independent basis, Debye-Ang):
   XX=            -93.2342   YY=           -127.9342   ZZ=            -61.9009
   XY=             24.0840   XZ=             -5.9601   YZ=              2.5587
 Traceless Quadrupole moment (field-independent basis, Debye-Ang):
   XX=              1.1222   YY=            -33.5778   ZZ=             32.4555
   XY=             24.0840   XZ=             -5.9601   YZ=              2.5587
 Octapole moment (field-independent basis, Debye-Ang**2):
  XXX=             42.4513  YYY=           -113.7578  ZZZ=              0.4806  XYY=            160.1605
  XXY=            -70.5029  XXZ=             11.4961  XZZ=             -4.6035  YZZ=              3.3293
  YYZ=             18.1894  XYZ=             -8.3504
 Hexadecapole moment (field-independent basis, Debye-Ang**3):
 XXXX=          -2383.9234 YYYY=          -1829.9628 ZZZZ=           -189.1608 XXXY=            199.8118
 XXXZ=            -48.5131 YYYX=            344.1063 YYYZ=             34.8113 ZZZX=             -4.5129
 ZZZY=             -1.0061 XXYY=           -943.0755 XXZZ=           -384.3159 YYZZ=           -229.3436
 XXYZ=             22.0010 YYXZ=            -41.7752 ZZXY=             -6.8122
 N-N= 4.135458350525D+02 E-N=-2.717410470421D+03  KE= 7.927410681115D+02
 Calling FoFJK, ICntrl=      2127 FMM=F ISym2X=0 I1Cent= 0 IOpClX= 0 NMat=1 NMatS=1 NMatT=0.
 ***** Axes restored to original set *****
 -------------------------------------------------------------------
 Center     Atomic                   Forces (Hartrees/Bohr)
 Number     Number              X              Y              Z
 -------------------------------------------------------------------
      1        6           0.030571476   -0.035097760    0.010738163
      2        1          -0.001824984    0.004940250   -0.002579425
      3        1          -0.003744523    0.015119529   -0.002342553
      4        6          -0.028586491    0.016914847   -0.014261996
      5        1          -0.000433641    0.002630106    0.001312831
      6        1           0.000767964    0.001628672    0.001036784
      7        6           0.003039108   -0.004418873   -0.000940447
      8        1           0.002413881    0.003544657    0.005917659
      9        1           0.001799031   -0.000219568    0.001141452
     10        6           0.000718596    0.000499686   -0.003327251
     11        1           0.004798082    0.000871732   -0.000460966
     12        1           0.000367552   -0.001841649   -0.003113543
     13       17          -0.012456661    0.003219375   -0.000314353
     14        9           0.005140368   -0.012022187    0.003541195
     15        6           0.001261808    0.012005323   -0.000661754
     16        1          -0.002498365   -0.005283601    0.004684804
     17        1          -0.001849721   -0.000191838   -0.001723715
     18        6           0.000739576    0.008711355   -0.000875082
     19        1           0.000049907    0.001840672   -0.000198584
     20        1           0.002424702   -0.007466075   -0.003586147
     21        1          -0.002697664   -0.005384652    0.006012927
 -------------------------------------------------------------------
 Cartesian Forces:  Max     0.035097760 RMS     0.008734335

 GradGradGradGradGradGradGradGradGradGradGradGradGradGradGradGradGradGrad
 Berny optimization.
 FormGI is forming the generalized inverse of G from B-inverse, IUseBI=4.
 Internal  Forces:  Max     0.019722285 RMS     0.003640561
 Search for a saddle point.
 Step number   1 out of a maximum of  126
 All quantities printed in internal units (Hartrees-Bohrs-Radians)
 Second derivative matrix not updated -- first step.
 ITU=  0
 LST/QST climbing along tangent vector
     Eigenvalues ---    0.00569   0.00571   0.00577   0.00588   0.01420
     Eigenvalues ---    0.02196   0.02436   0.02775   0.03320   0.03489
     Eigenvalues ---    0.03530   0.04332   0.04433   0.04533   0.04912
     Eigenvalues ---    0.04945   0.05025   0.05160   0.05356   0.05936
     Eigenvalues ---    0.06034   0.06293   0.06863   0.07046   0.08713
     Eigenvalues ---    0.08773   0.09220   0.11597   0.12472   0.12597
     Eigenvalues ---    0.12605   0.15988   0.16000   0.16000   0.16000
     Eigenvalues ---    0.16000   0.17040   0.21852   0.21871   0.29635
     Eigenvalues ---    0.30867   0.30882   0.30999   0.31156   0.32099
     Eigenvalues ---    0.32586   0.33770   0.33960   0.34033   0.34054
     Eigenvalues ---    0.34069   0.34191   0.34381   0.34489   0.34565
     Eigenvalues ---    0.35550   0.355821000.000001000.000001000.00000
     Eigenvalues --- 1000.000001000.000001000.000001000.000001000.00000
     Eigenvalues --- 1000.000001000.000001000.000001000.000001000.00000
     Eigenvalues --- 1000.000001000.000001000.000001000.000001000.00000
     Eigenvalues --- 1000.000001000.000001000.000001000.000001000.00000
     Eigenvalues --- 1000.000001000.000001000.000001000.000001000.00000
     Eigenvalues --- 1000.000001000.000001000.000001000.000001000.00000
     Eigenvalues --- 1000.000001000.000001000.000001000.000001000.00000
     Eigenvalues --- 1000.000001000.000001000.000001000.000001000.00000
     Eigenvalues --- 1000.000001000.000001000.000001000.000001000.00000
     Eigenvalues --- 1000.000001000.000001000.000001000.000001000.00000
     Eigenvalues --- 1000.000001000.000001000.000001000.000001000.00000
     Eigenvalues --- 1000.000001000.000001000.000001000.000001000.00000
     Eigenvalues --- 1000.000001000.000001000.000001000.000001000.00000
 Eigenvectors required to have negative eigenvalues:
                          D48       D49       D50       D45       D46
   1                    0.33137   0.33137   0.33137   0.33137   0.33137
                          D47       D42       D43       D44       D31
   1                    0.33137   0.33137   0.33137   0.33136  -0.03444
 QST in optimization variable space.
 Eigenvectors 1 and   6 swapped, overlap=  1.0000
                        Tangent   TS vect  // Eig F  Eigenval
   1         R1         0.00358  -0.00358   0.00077   0.02196
   2         R2         0.00351  -0.00351  -0.00004   0.00571
   3         R3         0.00203  -0.00203   0.00111   0.00577
   4         R4         0.43009  -0.43009   0.00028   0.00588
   5         R5        -0.70477   0.70477   0.00010   0.01420
   6         R6         0.00116  -0.00116  -0.00020   0.00569
   7         R7         0.00087  -0.00087  -0.00813   0.02436
   8         R8        -0.00043   0.00043   0.00437   0.02775
   9         R9        -0.37697   0.37697   0.00404   0.03320
  10         R10        0.07461  -0.07461  -0.00195   0.03489
  11         R11        0.00038  -0.00038  -0.00010   0.03530
  12         R12        0.00026  -0.00026  -0.00278   0.04332
  13         R13       -0.00004   0.00004  -0.00080   0.04433
  14         R14        0.01469  -0.01469  -0.00195   0.04533
  15         R15        0.00039  -0.00039  -0.00002   0.04912
  16         R16       -0.00032   0.00032   0.00045   0.04945
  17         R17       -0.00025   0.00025   0.00007   0.05025
  18         R18       -0.00011   0.00011   0.00061   0.05160
  19         R19        0.00036  -0.00036  -0.00583   0.05356
  20         R20       -0.00006   0.00006   0.00508   0.05936
  21         R21       -0.00014   0.00014   0.00283   0.06034
  22         R22        0.00006  -0.00006   0.00299   0.06293
  23         R23        0.00017  -0.00017  -0.00181   0.06863
  24         A1        -0.00977   0.00977  -0.00049   0.07046
  25         A2        -0.01083   0.01083  -0.00237   0.08713
  26         A3         0.02484  -0.02484  -0.00229   0.08773
  27         A4         0.03458  -0.03458   0.00187   0.09220
  28         A5        -0.01361   0.01361   0.00263   0.11597
  29         A6        -0.06978   0.06978   0.00210   0.12472
  30         A7         0.04205  -0.04205  -0.00094   0.12597
  31         A8        -0.06166   0.06166  -0.00171   0.12605
  32         A9         0.03839  -0.03839   0.00172   0.15988
  33         A10        0.00812  -0.00812   0.00130   0.16000
  34         A11       -0.00700   0.00700  -0.00084   0.16000
  35         A12        0.00051  -0.00051  -0.00079   0.16000
  36         A13       -0.00066   0.00066   0.00066   0.16000
  37         A14        0.00223  -0.00223   0.00683   0.17040
  38         A15       -0.00308   0.00308  -0.00079   0.21852
  39         A16       -0.10684   0.10684   0.00030   0.21871
  40         A17        0.08174  -0.08174   0.00141   0.29635
  41         A18       -0.00298   0.00298  -0.00150   0.30867
  42         A19        0.00380  -0.00380   0.00040   0.30882
  43         A20       -0.00034   0.00034   0.00088   0.30999
  44         A21        0.00236  -0.00236  -0.01085   0.31156
  45         A22       -0.00400   0.00400  -0.00230   0.32099
  46         A23        0.00138  -0.00138   0.00056   0.32586
  47         A24        0.03871  -0.03871  -0.00012   0.33770
  48         A25        0.00143  -0.00143   0.00006   0.33960
  49         A26       -0.00277   0.00277   0.00040   0.34033
  50         A27       -0.00095   0.00095  -0.00058   0.34054
  51         A28        0.00231  -0.00231   0.00045   0.34069
  52         A29        0.00104  -0.00104  -0.00048   0.34191
  53         A30       -0.00060   0.00060   0.00036   0.34381
  54         A31       -0.01149   0.01149  -0.00081   0.34489
  55         A32       -0.00170   0.00170   0.00038   0.34565
  56         A33        0.00106  -0.00106  -0.00042   0.35550
  57         A34       -0.00015   0.00015  -0.00077   0.35582
  58         A35        0.00094  -0.00094   0.000001000.00000
  59         A36        0.00012  -0.00012   0.000001000.00000
  60         A37        0.00004  -0.00004   0.000001000.00000
  61         A38       -0.00059   0.00059   0.000001000.00000
  62         A39       -0.00010   0.00010   0.000001000.00000
  63         A40        0.00036  -0.00036   0.000001000.00000
  64         A41        0.00020  -0.00020   0.000001000.00000
  65         A42        0.00049  -0.00049   0.000001000.00000
  66         A43       -0.00030   0.00030   0.000001000.00000
  67         D1        -0.00909   0.00909   0.000001000.00000
  68         D2        -0.00949   0.00949   0.000001000.00000
  69         D3        -0.01771   0.01771   0.000001000.00000
  70         D4         0.12225  -0.12225   0.000001000.00000
  71         D5         0.12186  -0.12186   0.000001000.00000
  72         D6         0.11363  -0.11363   0.000001000.00000
  73         D7        -0.00375   0.00375   0.000001000.00000
  74         D8        -0.00414   0.00414   0.000001000.00000
  75         D9        -0.01237   0.01237   0.000001000.00000
  76         D10        0.05180  -0.05180   0.000001000.00000
  77         D11        0.05141  -0.05141   0.000001000.00000
  78         D12        0.04319  -0.04319   0.000001000.00000
  79         D13        0.01958  -0.01958   0.000001000.00000
  80         D14        0.02409  -0.02409   0.000001000.00000
  81         D15        0.02694  -0.02694   0.000001000.00000
  82         D16        0.08656  -0.08656   0.000001000.00000
  83         D17        0.09221  -0.09221   0.000001000.00000
  84         D18        0.09263  -0.09263   0.000001000.00000
  85         D19        0.00802  -0.00802   0.000001000.00000
  86         D20        0.01130  -0.01130   0.000001000.00000
  87         D21        0.01504  -0.01504   0.000001000.00000
  88         D22       -0.00419   0.00419   0.000001000.00000
  89         D23       -0.00090   0.00090   0.000001000.00000
  90         D24        0.00283  -0.00283   0.000001000.00000
  91         D25       -0.00283   0.00283   0.000001000.00000
  92         D26        0.00046  -0.00046   0.000001000.00000
  93         D27        0.00420  -0.00420   0.000001000.00000
  94         D28       -0.07045   0.07045   0.000001000.00000
  95         D29       -0.11219   0.11219   0.000001000.00000
  96         D30       -0.11641   0.11641   0.000001000.00000
  97         D31       -0.11724   0.11724   0.000001000.00000
  98         D32       -0.01118   0.01118   0.000001000.00000
  99         D33       -0.00906   0.00906   0.000001000.00000
 100         D34       -0.01289   0.01289   0.000001000.00000
 101         D35       -0.00463   0.00463   0.000001000.00000
 102         D36       -0.00251   0.00251   0.000001000.00000
 103         D37       -0.00634   0.00634   0.000001000.00000
 104         D38       -0.00588   0.00588   0.000001000.00000
 105         D39       -0.00375   0.00375   0.000001000.00000
 106         D40       -0.00758   0.00758   0.000001000.00000
 107         D41        0.11613  -0.11613   0.000001000.00000
 108         D42       -0.00187   0.00187   0.000001000.00000
 109         D43       -0.00098   0.00098   0.000001000.00000
 110         D44       -0.00032   0.00032   0.000001000.00000
 111         D45       -0.00380   0.00380   0.000001000.00000
 112         D46       -0.00290   0.00290   0.000001000.00000
 113         D47       -0.00225   0.00225   0.000001000.00000
 114         D48       -0.00690   0.00690   0.000001000.00000
 115         D49       -0.00601   0.00601   0.000001000.00000
 116         D50       -0.00535   0.00535   0.000001000.00000
 117         D51        0.00017  -0.00017   0.000001000.00000
 118         D52       -0.00010   0.00010   0.000001000.00000
 119         D53       -0.00032   0.00032   0.000001000.00000
 120         D54        0.00259  -0.00259   0.000001000.00000
 121         D55        0.00232  -0.00232   0.000001000.00000
 122         D56        0.00210  -0.00210   0.000001000.00000
 123         D57        0.00141  -0.00141   0.000001000.00000
 124         D58        0.00114  -0.00114   0.000001000.00000
 125         D59        0.00093  -0.00093   0.000001000.00000
 RFO step:  Lambda0=2.198404481D-02 Lambda=-5.88627377D-03.
 Linear search not attempted -- option 19 set.
 Maximum step size (   0.300) exceeded in Quadratic search.
    -- Step size scaled by   0.011
 Iteration  1 RMS(Cart)=  0.02235003 RMS(Int)=  0.00240996
 Iteration  2 RMS(Cart)=  0.00266706 RMS(Int)=  0.00010614
 Iteration  3 RMS(Cart)=  0.00000493 RMS(Int)=  0.00010602
 Iteration  4 RMS(Cart)=  0.00000000 RMS(Int)=  0.00010602
 Variable       Old X    -DE/DX   Delta X   Delta X   Delta X     New X
                                 (Linear)    (Quad)   (Total)
    R1        2.04790  -0.00083   0.00000   0.00114   0.00114   2.04904
    R2        2.04740  -0.00155   0.00000   0.00111   0.00111   2.04851
    R3        2.83652  -0.01972   0.00000   0.00037   0.00036   2.83688
    R4        5.08588  -0.01170   0.00000   0.13659   0.13627   5.22215
    R5        6.43716  -0.00811   0.00000  -0.22809  -0.22811   6.20905
    R6        2.06840   0.00149   0.00000   0.00040   0.00041   2.06881
    R7        2.06412   0.00070   0.00000   0.00027   0.00031   2.06443
    R8        2.84623   0.00316   0.00000  -0.00006  -0.00008   2.84615
    R9        7.04441  -0.00589   0.00000  -0.12287  -0.12284   6.92157
   R10        4.69431   0.00395   0.00000   0.02436   0.02463   4.71894
   R11        2.08540  -0.00370   0.00000   0.00006   0.00006   2.08545
   R12        2.07238  -0.00115   0.00000   0.00006   0.00006   2.07245
   R13        2.86015   0.00176   0.00000   0.00002   0.00002   2.86017
   R14        5.21488   0.00443   0.00000   0.00544   0.00551   5.22039
   R15        2.07719  -0.00023   0.00000   0.00012   0.00012   2.07731
   R16        2.07397   0.00013   0.00000  -0.00010  -0.00010   2.07387
   R17        2.86268  -0.00301   0.00000  -0.00013  -0.00013   2.86254
   R18        2.07009  -0.00095   0.00000  -0.00005  -0.00005   2.07004
   R19        2.07213   0.00090   0.00000   0.00013   0.00013   2.07226
   R20        2.86238   0.00081   0.00000  -0.00001  -0.00001   2.86237
   R21        2.06513  -0.00161   0.00000  -0.00007  -0.00007   2.06506
   R22        2.06387   0.00076   0.00000   0.00003   0.00003   2.06390
   R23        2.06691   0.00072   0.00000   0.00007   0.00007   2.06698
    A1        2.05870  -0.00181   0.00000  -0.00303  -0.00328   2.05542
    A2        2.08525   0.00270   0.00000  -0.00330  -0.00351   2.08174
    A3        1.80280  -0.00241   0.00000   0.00785   0.00779   1.81058
    A4        1.57394  -0.00368   0.00000   0.01071   0.01080   1.58474
    A5        2.10050   0.00173   0.00000  -0.00436  -0.00465   2.09585
    A6        1.21546   0.00149   0.00000  -0.02203  -0.02183   1.19363
    A7        1.59494  -0.00774   0.00000   0.01300   0.01309   1.60803
    A8        1.44795   0.00881   0.00000  -0.01917  -0.01921   1.42874
    A9        1.79941   0.00220   0.00000   0.01223   0.01215   1.81156
   A10        1.88285   0.00329   0.00000   0.00277   0.00258   1.88542
   A11        1.85189  -0.00357   0.00000  -0.00249  -0.00236   1.84953
   A12        1.95466   0.00073   0.00000   0.00028   0.00034   1.95500
   A13        1.87051  -0.00033   0.00000  -0.00020  -0.00009   1.87042
   A14        1.93083  -0.00014   0.00000   0.00080   0.00090   1.93173
   A15        1.96819   0.00003   0.00000  -0.00111  -0.00133   1.96686
   A16        1.70353  -0.00446   0.00000  -0.03447  -0.03439   1.66914
   A17        1.78289   0.00049   0.00000   0.02616   0.02592   1.80880
   A18        1.90594  -0.00468   0.00000  -0.00106  -0.00118   1.90476
   A19        1.89290  -0.00051   0.00000   0.00124   0.00119   1.89408
   A20        1.89968   0.00848   0.00000   0.00019   0.00036   1.90004
   A21        1.86776   0.00202   0.00000   0.00080   0.00094   1.86870
   A22        1.95773  -0.00235   0.00000  -0.00146  -0.00156   1.95616
   A23        1.93855  -0.00316   0.00000   0.00035   0.00031   1.93887
   A24        1.95736   0.00513   0.00000   0.01252   0.01215   1.96951
   A25        1.85453   0.00399   0.00000   0.00073   0.00073   1.85526
   A26        1.92290  -0.00143   0.00000  -0.00100  -0.00100   1.92190
   A27        1.98770   0.00031   0.00000  -0.00032  -0.00032   1.98739
   A28        1.83004   0.00103   0.00000   0.00084   0.00084   1.83087
   A29        1.91049  -0.00303   0.00000   0.00024   0.00024   1.91073
   A30        1.94899  -0.00061   0.00000  -0.00032  -0.00032   1.94867
   A31        1.01499  -0.00241   0.00000  -0.00391  -0.00409   1.01090
   A32        1.98783  -0.00427   0.00000  -0.00092  -0.00092   1.98691
   A33        1.86381   0.00133   0.00000   0.00052   0.00052   1.86433
   A34        1.99087  -0.00161   0.00000  -0.00013  -0.00013   1.99074
   A35        1.81254   0.00085   0.00000   0.00044   0.00044   1.81298
   A36        1.94008   0.00196   0.00000  -0.00003  -0.00003   1.94006
   A37        1.85226   0.00253   0.00000   0.00031   0.00031   1.85256
   A38        1.98134  -0.00064   0.00000  -0.00033  -0.00033   1.98101
   A39        1.94056  -0.00013   0.00000   0.00001   0.00001   1.94057
   A40        1.91327   0.00015   0.00000   0.00018   0.00018   1.91345
   A41        1.92601  -0.00208   0.00000  -0.00011  -0.00011   1.92590
   A42        1.91779  -0.00232   0.00000  -0.00002  -0.00002   1.91776
   A43        1.77372   0.00562   0.00000   0.00034   0.00034   1.77406
    D1       -0.94507   0.00394   0.00000  -0.00251  -0.00246  -0.94753
    D2        1.05482   0.00335   0.00000  -0.00267  -0.00252   1.05230
    D3       -3.07392   0.00143   0.00000  -0.00556  -0.00555  -3.07948
    D4        2.49787  -0.00564   0.00000   0.03854   0.03852   2.53639
    D5       -1.78542  -0.00623   0.00000   0.03838   0.03846  -1.74696
    D6        0.36902  -0.00815   0.00000   0.03549   0.03543   0.40445
    D7       -2.71348   0.00189   0.00000  -0.00099  -0.00096  -2.71444
    D8       -0.71359   0.00130   0.00000  -0.00115  -0.00103  -0.71461
    D9        1.44086  -0.00063   0.00000  -0.00404  -0.00406   1.43680
   D10        0.76136   0.00172   0.00000   0.01658   0.01662   0.77798
   D11        2.76126   0.00113   0.00000   0.01642   0.01655   2.77781
   D12       -1.36749  -0.00079   0.00000   0.01353   0.01352  -1.35396
   D13       -0.66808  -0.00022   0.00000   0.00635   0.00646  -0.66163
   D14       -2.65561   0.00248   0.00000   0.00800   0.00799  -2.64762
   D15        1.47542   0.00275   0.00000   0.00901   0.00914   1.48456
   D16        0.80371  -0.00358   0.00000   0.02724   0.02747   0.83118
   D17        2.81202  -0.00166   0.00000   0.02913   0.02925   2.84127
   D18       -1.34222  -0.00206   0.00000   0.02929   0.02948  -1.31274
   D19       -0.90805   0.00391   0.00000   0.00279   0.00256  -0.90549
   D20        1.12156   0.00348   0.00000   0.00385   0.00370   1.12526
   D21       -3.05055   0.00438   0.00000   0.00513   0.00501  -3.04555
   D22       -3.00920  -0.00067   0.00000  -0.00147  -0.00157  -3.01077
   D23       -0.97959  -0.00109   0.00000  -0.00041  -0.00043  -0.98002
   D24        1.13148  -0.00020   0.00000   0.00088   0.00087   1.13236
   D25        1.17942  -0.00016   0.00000  -0.00102  -0.00118   1.17825
   D26       -3.07415  -0.00058   0.00000   0.00005  -0.00004  -3.07419
   D27       -0.96308   0.00031   0.00000   0.00133   0.00126  -0.96181
   D28        0.75719   0.00027   0.00000  -0.02224  -0.02249   0.73470
   D29       -0.26577   0.00025   0.00000  -0.03560  -0.03583  -0.30159
   D30       -2.31133   0.00219   0.00000  -0.03695  -0.03713  -2.34846
   D31        1.84165   0.00622   0.00000  -0.03702  -0.03719   1.80446
   D32       -0.95633  -0.00267   0.00000  -0.00370  -0.00374  -0.96007
   D33        1.01685  -0.00006   0.00000  -0.00281  -0.00285   1.01399
   D34       -3.06083  -0.00181   0.00000  -0.00431  -0.00435  -3.06518
   D35       -3.06736  -0.00104   0.00000  -0.00156  -0.00150  -3.06886
   D36       -1.09418   0.00157   0.00000  -0.00068  -0.00062  -1.09480
   D37        1.11133  -0.00018   0.00000  -0.00217  -0.00211   1.10921
   D38        1.12649   0.00015   0.00000  -0.00183  -0.00186   1.12463
[...]
 Alpha virt. eigenvalues --    0.12800   0.13379   0.13953   0.14382   0.14706
 Alpha virt. eigenvalues --    0.15752   0.15926   0.16265   0.16410   0.16698
 Alpha virt. eigenvalues --    0.17746   0.17848   0.18103   0.18620   0.18872
 Alpha virt. eigenvalues --    0.19169   0.19813   0.20402   0.20563   0.20927
 Alpha virt. eigenvalues --    0.21538   0.22210   0.22377   0.23155   0.24318
 Alpha virt. eigenvalues --    0.24646   0.25456   0.25699   0.26134   0.26976
 Alpha virt. eigenvalues --    0.27489   0.27894   0.28712   0.29647   0.29731
 Alpha virt. eigenvalues --    0.30171   0.30780   0.31630   0.32022   0.32224
 Alpha virt. eigenvalues --    0.32953   0.33288   0.33462   0.33942   0.34162
 Alpha virt. eigenvalues --    0.34333   0.35079   0.35307   0.35777   0.35921
 Alpha virt. eigenvalues --    0.36301   0.36768   0.37240   0.37498   0.37887
 Alpha virt. eigenvalues --    0.38108   0.38296   0.38736   0.38935   0.39320
 Alpha virt. eigenvalues --    0.39653   0.40006   0.40322   0.40513   0.40966
 Alpha virt. eigenvalues --    0.41569   0.42133   0.42307   0.42592   0.43623
 Alpha virt. eigenvalues --    0.43731   0.44209   0.44521   0.44999   0.45556
 Alpha virt. eigenvalues --    0.45856   0.46381   0.46610   0.46999   0.47533
 Alpha virt. eigenvalues --    0.48252   0.48603   0.49118   0.49379   0.49944
 Alpha virt. eigenvalues --    0.49998   0.50580   0.50894   0.51329   0.52073
 Alpha virt. eigenvalues --    0.52284   0.52584   0.53493   0.54073   0.54457
 Alpha virt. eigenvalues --    0.55244   0.55459   0.56323   0.56348   0.57246
 Alpha virt. eigenvalues --    0.57387   0.58232   0.58724   0.59736   0.59894
 Alpha virt. eigenvalues --    0.60584   0.60754   0.61670   0.62409   0.62825
 Alpha virt. eigenvalues --    0.63395   0.64037   0.64974   0.65498   0.66062
 Alpha virt. eigenvalues --    0.67443   0.67706   0.68744   0.69019   0.69438
 Alpha virt. eigenvalues --    0.70718   0.71146   0.72034   0.72552   0.73035
 Alpha virt. eigenvalues --    0.73198   0.73880   0.74638   0.75345   0.76240
 Alpha virt. eigenvalues --    0.76590   0.77279   0.77775   0.78351   0.79460
 Alpha virt. eigenvalues --    0.79987   0.80644   0.81018   0.81360   0.81804
 Alpha virt. eigenvalues --    0.82854   0.82885   0.83369   0.83842   0.85185
 Alpha virt. eigenvalues --    0.85571   0.85648   0.86292   0.86887   0.87616
 Alpha virt. eigenvalues --    0.88607   0.88818   0.89193   0.89678   0.90181
 Alpha virt. eigenvalues --    0.91184   0.91314   0.91996   0.92179   0.92772
 Alpha virt. eigenvalues --    0.93569   0.94047   0.94835   0.95535   0.95770
 Alpha virt. eigenvalues --    0.96022   0.96577   0.97461   0.99452   0.99971
 Alpha virt. eigenvalues --    1.00245   1.00618   1.00956   1.01789   1.02890
 Alpha virt. eigenvalues --    1.02986   1.03583   1.04102   1.04835   1.04989
 Alpha virt. eigenvalues --    1.06213   1.06287   1.06729   1.07286   1.07943
 Alpha virt. eigenvalues --    1.08030   1.08547   1.09159   1.09401   1.10022
 Alpha virt. eigenvalues --    1.10535   1.10770   1.11314   1.12293   1.13021
 Alpha virt. eigenvalues --    1.13367   1.13811   1.15131   1.16041   1.16374
 Alpha virt. eigenvalues --    1.16972   1.17070   1.18164   1.18308   1.18828
 Alpha virt. eigenvalues --    1.19014   1.20089   1.20622   1.21774   1.22202
 Alpha virt. eigenvalues --    1.22883   1.23796   1.24093   1.25430   1.25926
 Alpha virt. eigenvalues --    1.26414   1.26813   1.27929   1.28308   1.30386
 Alpha virt. eigenvalues --    1.30478   1.30902   1.32284   1.32575   1.33846
 Alpha virt. eigenvalues --    1.34396   1.35543   1.36345   1.37168   1.38449
 Alpha virt. eigenvalues --    1.39525   1.40244   1.41004   1.41504   1.42631
 Alpha virt. eigenvalues --    1.43347   1.43852   1.45593   1.46446   1.46670
 Alpha virt. eigenvalues --    1.47542   1.47860   1.48883   1.50002   1.50206
 Alpha virt. eigenvalues --    1.51127   1.51470   1.52514   1.52640   1.53118
 Alpha virt. eigenvalues --    1.53357   1.54541   1.55146   1.55993   1.56504
 Alpha virt. eigenvalues --    1.56811   1.57562   1.58184   1.59134   1.59716
 Alpha virt. eigenvalues --    1.60692   1.60937   1.61670   1.62460   1.62588
 Alpha virt. eigenvalues --    1.63377   1.63876   1.64739   1.65257   1.65440
 Alpha virt. eigenvalues --    1.65765   1.66478   1.67632   1.67850   1.68488
 Alpha virt. eigenvalues --    1.68767   1.69243   1.70628   1.71013   1.72070
 Alpha virt. eigenvalues --    1.73212   1.74396   1.75289   1.75637   1.76113
 Alpha virt. eigenvalues --    1.76630   1.77208   1.77948   1.78984   1.79196
 Alpha virt. eigenvalues --    1.81039   1.81683   1.82552   1.83526   1.83929
 Alpha virt. eigenvalues --    1.85167   1.86120   1.86602   1.87155   1.87773
 Alpha virt. eigenvalues --    1.88122   1.90208   1.91685   1.93125   1.93144
 Alpha virt. eigenvalues --    1.93516   1.95197   1.96109   1.97240   1.98257
 Alpha virt. eigenvalues --    1.99490   1.99770   2.00988   2.01726   2.02836
 Alpha virt. eigenvalues --    2.05423   2.05842   2.06377   2.07013   2.07708
 Alpha virt. eigenvalues --    2.08361   2.09362   2.11001   2.11988   2.13226
 Alpha virt. eigenvalues --    2.13788   2.14560   2.15683   2.16762   2.17574
 Alpha virt. eigenvalues --    2.19124   2.19987   2.21466   2.22086   2.23224
 Alpha virt. eigenvalues --    2.23672   2.25911   2.28110   2.29106   2.30729
 Alpha virt. eigenvalues --    2.31757   2.32244   2.33518   2.34853   2.35568
 Alpha virt. eigenvalues --    2.39556   2.40763   2.41128   2.46026   2.47683
 Alpha virt. eigenvalues --    2.52273   2.55634   2.56380   2.57537   2.58067
 Alpha virt. eigenvalues --    2.59994   2.63123   2.64824   2.66536   2.70263
 Alpha virt. eigenvalues --    2.71983   2.72972   2.76397   2.77745   2.82958
 Alpha virt. eigenvalues --    2.84969   2.88394   2.90501   2.95114   2.96486
 Alpha virt. eigenvalues --    2.98493   2.99273   3.00506   3.01237   3.01597
 Alpha virt. eigenvalues --    3.03435   3.04406   3.07576   3.08465   3.09787
 Alpha virt. eigenvalues --    3.10285   3.12617   3.13792   3.15434   3.16691
 Alpha virt. eigenvalues --    3.17252   3.18313   3.19299   3.20408   3.20780
 Alpha virt. eigenvalues --    3.21818   3.23230   3.25415   3.25766   3.26568
 Alpha virt. eigenvalues --    3.27579   3.28289   3.29609   3.30077   3.30439
 Alpha virt. eigenvalues --    3.33323   3.33570   3.34586   3.35055   3.36344
 Alpha virt. eigenvalues --    3.38382   3.38708   3.39123   3.40707   3.41414
 Alpha virt. eigenvalues --    3.42468   3.44029   3.45659   3.46259   3.47382
 Alpha virt. eigenvalues --    3.48022   3.49237   3.51667   3.52817   3.54513
 Alpha virt. eigenvalues --    3.54723   3.56144   3.56998   3.58032   3.59160
 Alpha virt. eigenvalues --    3.59813   3.60460   3.62725   3.63990   3.64115
 Alpha virt. eigenvalues --    3.64796   3.66297   3.67402   3.68420   3.69275
 Alpha virt. eigenvalues --    3.69610   3.70253   3.73659   3.74239   3.75145
 Alpha virt. eigenvalues --    3.77290   3.77819   3.78472   3.80105   3.80988
 Alpha virt. eigenvalues --    3.81535   3.82331   3.84157   3.86840   3.87593
 Alpha virt. eigenvalues --    3.89034   3.91784   3.91873   3.93295   3.93901
 Alpha virt. eigenvalues --    3.95230   3.96427   3.97172   3.98552   3.99531
 Alpha virt. eigenvalues --    4.01164   4.01442   4.02773   4.04160   4.05962
 Alpha virt. eigenvalues --    4.07723   4.10032   4.10761   4.11804   4.14077
 Alpha virt. eigenvalues --    4.14580   4.17136   4.18355   4.18475   4.19733
 Alpha virt. eigenvalues --    4.20558   4.23065   4.24426   4.26444   4.27446
 Alpha virt. eigenvalues --    4.29034   4.30084   4.30970   4.34583   4.35620
 Alpha virt. eigenvalues --    4.36280   4.37836   4.38846   4.39847   4.41664
 Alpha virt. eigenvalues --    4.43052   4.44236   4.45807   4.46399   4.49343
 Alpha virt. eigenvalues --    4.49614   4.51007   4.52334   4.52977   4.55090
 Alpha virt. eigenvalues --    4.55721   4.57511   4.57935   4.60680   4.61365
 Alpha virt. eigenvalues --    4.63093   4.64226   4.67073   4.68015   4.70101
 Alpha virt. eigenvalues --    4.71464   4.71896   4.73779   4.75069   4.78463
 Alpha virt. eigenvalues --    4.80605   4.80841   4.81135   4.84537   4.87124
 Alpha virt. eigenvalues --    4.89140   4.89889   4.90700   4.91945   4.94137
 Alpha virt. eigenvalues --    4.95456   4.96525   4.97888   4.98069   5.01231
 Alpha virt. eigenvalues --    5.01745   5.03679   5.04683   5.04981   5.07124
 Alpha virt. eigenvalues --    5.08035   5.09540   5.10883   5.12887   5.13775
 Alpha virt. eigenvalues --    5.14361   5.15068   5.16510   5.18946   5.20773
 Alpha virt. eigenvalues --    5.22293   5.23464   5.23714   5.25221   5.27856
 Alpha virt. eigenvalues --    5.29059   5.30886   5.31975   5.32848   5.33644
 Alpha virt. eigenvalues --    5.38357   5.40897   5.42363   5.44181   5.46224
 Alpha virt. eigenvalues --    5.46807   5.48848   5.51273   5.51787   5.54134
 Alpha virt. eigenvalues --    5.55536   5.58323   5.59374   5.60815   5.64700
 Alpha virt. eigenvalues --    5.66063   5.68393   5.71254   5.72229   5.72647
 Alpha virt. eigenvalues --    5.74316   5.76317   5.78913   5.81874   5.82234
 Alpha virt. eigenvalues --    5.84607   5.86667   5.89073   5.91470   6.00700
 Alpha virt. eigenvalues --    6.04267   6.13597   6.18747   6.25243   6.33821
 Alpha virt. eigenvalues --    6.37408   6.39126   6.46109   6.47259   6.48976
 Alpha virt. eigenvalues --    6.51677   6.62917   6.75622   7.21517   8.71049
 Alpha virt. eigenvalues --    8.73360   8.83955   8.87722   8.98694   9.02613
 Alpha virt. eigenvalues --    9.12862   9.23780   9.30620   9.33254   9.36627
 Alpha virt. eigenvalues --    9.42595  13.82614  17.01193  17.31787  17.52098
 Alpha virt. eigenvalues --   17.74546  18.23785  18.69812
          Condensed to atoms (all electrons):
               1          2          3          4          5          6
     1  C   12.527900  -0.478217  -0.356985  -1.654138  -0.050600  -0.241302
     2  H   -0.478217   0.790978  -0.474553   0.165220  -0.028852  -0.066716
     3  H   -0.356985  -0.474553   0.792160  -0.085062   0.043402   0.058615
     4  C   -1.654138   0.165220  -0.085062  12.460445  -0.453853  -0.820342
     5  H   -0.050600  -0.028852   0.043402  -0.453853   0.639030  -0.179484
     6  H   -0.241302  -0.066716   0.058615  -0.820342  -0.179484   0.845237
     7  C    0.095580   0.100676   0.038152  -2.214393   0.166564   0.358610
     8  H   -0.104117   0.015041  -0.078768   0.139975   0.112351  -0.112856
     9  H   -0.193889  -0.005412  -0.052883   0.139060  -0.099992   0.111352
    10  C   -0.337245   0.003033   0.024363   0.177840  -0.026281  -0.016968
    11  H   -0.021067   0.000542   0.002108   0.036619   0.007505  -0.072111
    12  H    0.003528   0.001597   0.001825   0.007970  -0.051127  -0.050920
    13  Cl  -1.044517   0.047431   0.068456   0.123816  -0.025887   0.054896
    14  F   -0.249960   0.002542   0.018288   0.075633   0.040795   0.011611
    15  C   -0.114606   0.004162   0.004926  -0.300501   0.013182   0.039533
    16  H    0.002710   0.000627   0.001403   0.041955   0.003734  -0.000456
    17  H    0.006589   0.000647   0.001758   0.022161   0.000047   0.001874
    18  C    0.009045   0.000093   0.001156  -0.174206  -0.000695   0.003732
    19  H    0.001276   0.000152  -0.000317   0.002129   0.000011   0.003054
    20  H    0.000413  -0.000055   0.000316   0.003871  -0.000334   0.000721
    21  H    0.001448   0.000198  -0.000386   0.005837   0.003481   0.000323
               7          8          9         10         11         12
     1  C    0.095580  -0.104117  -0.193889  -0.337245  -0.021067   0.003528
     2  H    0.100676   0.015041  -0.005412   0.003033   0.000542   0.001597
     3  H    0.038152  -0.078768  -0.052883   0.024363   0.002108   0.001825
     4  C   -2.214393   0.139975   0.139060   0.177840   0.036619   0.007970
     5  H    0.166564   0.112351  -0.099992  -0.026281   0.007505  -0.051127
     6  H    0.358610  -0.112856   0.111352  -0.016968  -0.072111  -0.050920
     7  C   12.640117  -0.851490  -0.740408  -2.382513  -0.004194  -0.046740
     8  H   -0.851490   0.843019  -0.051495   0.134756   0.142574  -0.073839
     9  H   -0.740408  -0.051495   0.882041   0.096522  -0.113977   0.142421
    10  C   -2.382513   0.134756   0.096522  12.432060  -0.568431  -0.510711
    11  H   -0.004194   0.142574  -0.113977  -0.568431   0.832739  -0.125467
    12  H   -0.046740  -0.073839   0.142421  -0.510711  -0.125467   0.928803
    13  Cl   0.122009   0.007415   0.021123   0.093570   0.010408   0.008155
    14  F   -0.005362   0.012746   0.021292   0.028024   0.001640   0.000934
    15  C    0.298902   0.004216   0.075475  -2.218092   0.015850  -0.051531
    16  H    0.076506   0.001291  -0.093771   0.182555   0.101868  -0.107895
    17  H    0.091793  -0.078746   0.010519   0.184465  -0.087838   0.110403
    18  C   -0.383250  -0.017220   0.002124   0.211500  -0.015271   0.011111
    19  H    0.041767  -0.002566   0.004555  -0.028132  -0.054850  -0.009415
    20  H   -0.018386   0.000598   0.000659   0.054728   0.014138   0.011915
    21  H    0.041478   0.004208  -0.002917  -0.032495  -0.004971  -0.062788
              13         14         15         16         17         18
     1  C   -1.044517  -0.249960  -0.114606   0.002710   0.006589   0.009045
     2  H    0.047431   0.002542   0.004162   0.000627   0.000647   0.000093
     3  H    0.068456   0.018288   0.004926   0.001403   0.001758   0.001156
     4  C    0.123816   0.075633  -0.300501   0.041955   0.022161  -0.174206
     5  H   -0.025887   0.040795   0.013182   0.003734   0.000047  -0.000695
     6  H    0.054896   0.011611   0.039533  -0.000456   0.001874   0.003732
     7  C    0.122009  -0.005362   0.298902   0.076506   0.091793  -0.383250
     8  H    0.007415   0.012746   0.004216   0.001291  -0.078746  -0.017220
     9  H    0.021123   0.021292   0.075475  -0.093771   0.010519   0.002124
    10  C    0.093570   0.028024  -2.218092   0.182555   0.184465   0.211500
    11  H    0.010408   0.001640   0.015850   0.101868  -0.087838  -0.015271
    12  H    0.008155   0.000934  -0.051531  -0.107895   0.110403   0.011111
    13  Cl  18.239557   0.043865  -0.016268  -0.005563  -0.000029  -0.000218
    14  F    0.043865   9.741024   0.000441  -0.000053  -0.001261   0.000504
    15  C   -0.016268   0.000441  12.231028  -0.383819  -0.373690  -2.428566
    16  H   -0.005563  -0.000053  -0.383819   0.585205  -0.038168  -0.242789
    17  H   -0.000029  -0.001261  -0.373690  -0.038168   0.545125  -0.247635
    18  C   -0.000218   0.000504  -2.428566  -0.242789  -0.247635  12.989426
    19  H    0.000084   0.000009   0.223487  -0.006704   0.065554  -0.320124
    20  H    0.000184   0.000036   0.105646  -0.025429  -0.018995  -0.038805
    21  H   -0.000515  -0.000032   0.233085   0.068924  -0.011595  -0.328395
              19         20         21
     1  C    0.001276   0.000413   0.001448
     2  H    0.000152  -0.000055   0.000198
     3  H   -0.000317   0.000316  -0.000386
     4  C    0.002129   0.003871   0.005837
     5  H    0.000011  -0.000334   0.003481
     6  H    0.003054   0.000721   0.000323
     7  C    0.041767  -0.018386   0.041478
     8  H   -0.002566   0.000598   0.004208
     9  H    0.004555   0.000659  -0.002917
    10  C   -0.028132   0.054728  -0.032495
    11  H   -0.054850   0.014138  -0.004971
    12  H   -0.009415   0.011915  -0.062788
    13  Cl   0.000084   0.000184  -0.000515
    14  F    0.000009   0.000036  -0.000032
    15  C    0.223487   0.105646   0.233085
    16  H   -0.006704  -0.025429   0.068924
    17  H    0.065554  -0.018995  -0.011595
    18  C   -0.320124  -0.038805  -0.328395
    19  H    0.387596  -0.104008   0.047888
    20  H   -0.104008   0.395692  -0.105029
    21  H    0.047888  -0.105029   0.388861
 Mulliken charges:
               1
     1  C   -1.801847
     2  H    0.920865
     3  H    0.992028
     4  C   -1.700037
     5  H    0.887000
     6  H    1.071596
     7  C   -1.425420
     8  H    0.952906
     9  H    0.847601
    10  C   -1.502547
    11  H    0.902187
    12  H    0.861772
    13  Cl  -0.747971
    14  F   -0.742717
    15  C   -1.362859
    16  H    0.837869
    17  H    0.817021
    18  C   -3.031519
    19  H    0.748554
    20  H    0.722126
    21  H    0.753392
 Sum of Mulliken charges =  -1.00000
 Mulliken charges with hydrogens summed into heavy atoms:
               1
     1  C    0.111046
     4  C    0.258559
     7  C    0.375088
    10  C    0.261412
    13  Cl  -0.747971
    14  F   -0.742717
    15  C    0.292031
    18  C   -0.807447
 Electronic spatial extent (au):  <R**2>=           2284.5445
 Charge=             -1.0000 electrons
 Dipole moment (field-independent basis, Debye):
    X=              9.0913    Y=             -3.1180    Z=              0.8658  Tot=              9.6500
 Quadrupole moment (field-independent basis, Debye-Ang):
   XX=            -90.3245   YY=            -93.2998   ZZ=            -62.7577
   XY=              2.6182   XZ=             -2.4160   YZ=              1.7968
 Traceless Quadrupole moment (field-independent basis, Debye-Ang):
   XX=             -8.1972   YY=            -11.1725   ZZ=             19.3696
   XY=              2.6182   XZ=             -2.4160   YZ=              1.7968
 Octapole moment (field-independent basis, Debye-Ang**2):
  XXX=             18.9853  YYY=            -40.5471  ZZZ=             -2.0632  XYY=             60.0992
  XXY=             13.5033  XXZ=              2.3340  XZZ=             -4.5145  YZZ=              4.5484
  YYZ=              6.4233  XYZ=             -3.3239
 Hexadecapole moment (field-independent basis, Debye-Ang**3):
 XXXX=          -2619.2394 YYYY=           -810.0342 ZZZZ=           -178.4678 XXXY=            -52.4926
 XXXZ=            -25.1541 YYYX=             67.4552 YYYZ=             13.2460 ZZZX=              0.6965
 ZZZY=             -3.6540 XXYY=           -622.2701 XXZZ=           -425.1483 YYZZ=           -134.5721
 XXYZ=              6.4991 YYXZ=            -10.3890 ZZXY=             -9.0679
 N-N= 4.379199451395D+02 E-N=-2.767998990118D+03  KE= 7.929557134757D+02
 1\1\GINC-NODE0704\FTS\RM06\Aug-CC-pVTZ\C6H13Cl1F1(1-)\GRAHA682\11-Jul-
 2017\0\\# opt=qst2 aug-cc-pvtz geom=connectivity m06\\Title Card Requi
 red\\-1,1\C,-1.9908413897,-0.4902808617,0.0131663832\H,-2.8814916304,-
 0.6249033839,0.597152898\H,-2.1251752278,-0.2191584694,-1.0167335441\C
 ,-0.689690583,-0.2385487539,0.69403026\H,-0.8503244156,0.6303085915,1.
 3371775787\H,-0.4291264332,-1.0964348478,1.3214990614\C,0.4288489758,0
 .0527313704,-0.2815032168\H,0.5271614557,-0.7894207439,-0.9775738412\H
 ,0.1439743649,0.9300984251,-0.8732035913\C,1.7559639002,0.3057650532,0
 .4010797298\H,1.6480849039,1.1341251151,1.1138155543\H,2.0328934297,-0
 .5716930323,1.0009879697\Cl,-1.804476487,-2.6157248982,-0.4677619511\F
 ,-2.5005353538,1.5303144413,0.1703963156\C,2.8796113939,0.6222414241,-
 0.5654650094\H,2.9779523887,-0.2018153929,-1.2809916133\H,2.6037079792
 ,1.5012641207,-1.1581671882\C,4.2039102945,0.8631681984,0.1295601404\H
 ,4.5056301629,-0.0154070758,0.7059429179\H,5.0071782525,1.0918614482,-
 0.5738973363\H,4.1279810188,1.6982502717,0.8310654828\\Version=ES64L-G
 09RevD.01\State=1-A\HF=-796.4420312\RMSD=3.487e-09\RMSF=6.592e-06\Dipo
 le=3.7915296,0.0244214,0.1947856\Quadrupole=-7.7281617,-6.3199949,14.0
 481566,2.4162607,-0.8258353,-3.2453627\PG=C01 [X(C6H13Cl1F1)]\\@


 DEMOCRATS BUY MOST OF THE BOOKS THAT HAVE BEEN
 BANNED; REPUBLICANS FORM CENSORSHIP COMMITTEES AND
 READ THEM AS A GROUP.
 Job cpu time:       5 days 21 hours 37 minutes 53.1 seconds.
 File lengths (MBytes):  RWF=    265 Int=      0 D2E=      0 Chk=     29 Scr=      1
 Normal termination of Gaussian 09 at Tue Jul 11 07:32:42 2017.
508978.63user 894.56system 17:44:19elapsed 798%CPU (0avgtext+0avgdata 634296maxresident)k
1770904inputs+45121712outputs (1112major+482489482minor)pagefaults 0swaps
