 Entering Gaussian System, Link 0=g09
 Initial command:
 /soft/gaussian/g09.d01_itasca/g09/l1.exe "/scratch/graha682/1917626.node1081.localdomain/Gau-32745.inp" -scrdir="/scratch/graha682/1917626.node1081.localdomain/"
 Entering Link 1 = /soft/gaussian/g09.d01_itasca/g09/l1.exe PID=     32746.
  
 Copyright (c) 1988,1990,1992,1993,1995,1998,2003,2009,2013,
            Gaussian, Inc.  All Rights Reserved.
  
 This is part of the Gaussian(R) 09 program.  It is based on
 the Gaussian(R) 03 system (copyright 2003, Gaussian, Inc.),
 the Gaussian(R) 98 system (copyright 1998, Gaussian, Inc.),
 the Gaussian(R) 94 system (copyright 1995, Gaussian, Inc.),
 the Gaussian 92(TM) system (copyright 1992, Gaussian, Inc.),
 the Gaussian 90(TM) system (copyright 1990, Gaussian, Inc.),
 the Gaussian 88(TM) system (copyright 1988, Gaussian, Inc.),
 the Gaussian 86(TM) system (copyright 1986, Carnegie Mellon
 University), and the Gaussian 82(TM) system (copyright 1983,
 Carnegie Mellon University). Gaussian is a federally registered
 trademark of Gaussian, Inc.
  
 This software contains proprietary and confidential information,
 including trade secrets, belonging to Gaussian, Inc.
  
 This software is provided under written license and may be
 used, copied, transmitted, or stored only in accord with that
 written license.
  
 The following legend is applicable only to US Government
 contracts under FAR:
  
                    RESTRICTED RIGHTS LEGEND
  
 Use, reproduction and disclosure by the US Government is
 subject to restrictions as set forth in subparagraphs (a)
 and (c) of the Commercial Computer Software - Restricted
 Rights clause in FAR 52.227-19.
  
 Gaussian, Inc.
 340 Quinnipiac St., Bldg. 40, Wallingford CT 06492
  
  
 ---------------------------------------------------------------
 Warning -- This program may not be used in any manner that
 competes with the business of Gaussian, Inc. or will provide
 assistance to any competitor of Gaussian, Inc.  The licensee
 of this program is prohibited from giving any competitor of
 Gaussian, Inc. access to this program.  By using this program,
 the user acknowledges that Gaussian, Inc. is engaged in the
 business of creating and licensing software in the field of
 computational chemistry and represents and warrants to the
 licensee that it is not a competitor of Gaussian, Inc. and that
 it will not use this program in any manner prohibited above.
 ---------------------------------------------------------------
  

 Cite this work as:
 Gaussian 09, Revision D.01,
 M. J. Frisch, G. W. Trucks, H. B. Schlegel, G. E. Scuseria, 
 M. A. Robb, J. R. Cheeseman, G. Scalmani, V. Barone, B. Mennucci, 
 G. A. Petersson, H. Nakatsuji, M. Caricato, X. Li, H. P. Hratchian, 
 A. F. Izmaylov, J. Bloino, G. Zheng, J. L. Sonnenberg, M. Hada, 
 M. Ehara, K. Toyota, R. Fukuda, J. Hasegawa, M. Ishida, T. Nakajima, 
 Y. Honda, O. Kitao, H. Nakai, T. Vreven, J. A. Montgomery, Jr., 
 J. E. Peralta, F. Ogliaro, M. Bearpark, J. J. Heyd, E. Brothers, 
 K. N. Kudin, V. N. Staroverov, T. Keith, R. Kobayashi, J. Normand, 
 K. Raghavachari, A. Rendell, J. C. Burant, S. S. Iyengar, J. Tomasi, 
 M. Cossi, N. Rega, J. M. Millam, M. Klene, J. E. Knox, J. B. Cross, 
 V. Bakken, C. Adamo, J. Jaramillo, R. Gomperts, R. E. Stratmann, 
 O. Yazyev, A. J. Austin, R. Cammi, C. Pomelli, J. W. Ochterski, 
 R. L. Martin, K. Morokuma, V. G. Zakrzewski, G. A. Voth, 
 P. Salvador, J. J. Dannenberg, S. Dapprich, A. D. Daniels, 
 O. Farkas, J. B. Foresman, J. V. Ortiz, J. Cioslowski, 
 and D. J. Fox, Gaussian, Inc., Wallingford CT, 2013.
 
 ******************************************
 Gaussian 09:  ES64L-G09RevD.01 24-Apr-2013
                 7-Jul-2017 
 ******************************************
 %LindaWorkers=ic-node0050
 %NProcShared=8
 Will use up to    8 processors via shared memory.
 %Mem=11800mb
 %chk=201707_ccpVDZ_m06_pentacene.chk
 SetLPE:  input flags=" -workerwait 250000 -opt "Tsnet.Node.lindarsharg: ssh " "
 SetLPE:    new flags=" -workerwait 250000 -opt "Tsnet.Node.lindarsharg: ssh "  -nodelist 'ic-node0050'"
 Will use up to    1 processors via Linda.
 ----------------------------------------
 # opt freq cc-pvdz geom=connectivity m06
 ----------------------------------------
 1/14=-1,18=20,19=15,26=3,38=1,57=2/1,3;
 2/9=110,12=2,17=6,18=5,40=1/2;
 3/5=16,11=2,16=1,25=1,30=1,71=1,74=-54/1,2,3;
 4//1;
 5/5=2,38=5/2;
 6/7=2,8=2,9=2,10=2,28=1/1;
 7//1,2,3,16;
 1/14=-1,18=20,19=15,26=3/3(2);
 2/9=110/2;
 99//99;
 2/9=110/2;
 3/5=16,11=2,16=1,25=1,30=1,71=1,74=-54/1,2,3;
 4/5=5,16=3,69=1/1;
 5/5=2,38=5/2;
 7//1,2,3,16;
 1/14=-1,18=20,19=15,26=3/3(-5);
 2/9=110/2;
 6/7=2,8=2,9=2,10=2,19=2,28=1/1;
 99/9=1/99;
 -------------------
 Title Card Required
 -------------------
 Symbolic Z-matrix:
 Charge =  0 Multiplicity = 1
 C                     0.28978   2.13248   1.62828 
 C                     1.62189   1.87844   1.27488 
 C                     2.30844   2.77205   0.4418 
 C                     1.6629    3.9197   -0.03788 
 C                     0.3308    4.17374   0.31553 
 C                    -0.35576   3.28013   1.14861 
 H                    -0.23442   1.45018   2.26436 
 H                     2.1871    4.60199  -0.67395 
 H                    -0.16209   5.05     -0.05072 
 H                    -1.37285   3.47409   1.41844 
 C                     2.26743   0.73078   1.75456 
 C                     3.59953   0.47674   1.40115 
 C                     4.28609   1.37035   0.56808 
 C                     3.64054   2.51801   0.0884 
 H                     1.74323   0.04849   2.39064 
 H                     4.16474   3.2003   -0.54767 
 C                     4.24507  -0.67091   1.88083 
 C                     5.57717  -0.92495   1.52743 
 C                     6.26373  -0.03134   0.69435 
 C                     5.61819   1.11631   0.21467 
 H                     3.72087  -1.3532    2.5169 
 H                     6.14239   1.79861  -0.4214 
 C                     6.22272  -2.07261   2.0071 
 C                     7.59583  -0.28538   0.34094 
 H                     5.69851  -2.7549    2.64317 
 H                     8.12003   0.39691  -0.29513 
 C                     8.20036  -3.4743    2.13336 
 C                     9.53245  -3.72835   1.77995 
 C                     10.21901  -2.83474   0.94687 
 C                     9.57347  -1.68708   0.4672 
 H                     7.67616  -4.15659   2.76944 
 H                     10.02534  -4.60461   2.14619 
 H                     11.2361  -3.02871   0.67703 
 H                     10.09767  -1.00479  -0.16887 
 C                     8.24137  -1.43304   0.82061 
 C                     7.55481  -2.32665   1.65369 
 

 GradGradGradGradGradGradGradGradGradGradGradGradGradGradGradGradGradGrad
 Berny optimization.
 Initialization pass.
                           ----------------------------
                           !    Initial Parameters    !
                           ! (Angstroms and Degrees)  !
 --------------------------                            --------------------------
 ! Name  Definition              Value          Derivative Info.                !
 --------------------------------------------------------------------------------
 ! R1    R(1,2)                  1.4014         estimate D2E/DX2                !
 ! R2    R(1,6)                  1.4014         estimate D2E/DX2                !
 ! R3    R(1,7)                  1.07           estimate D2E/DX2                !
 ! R4    R(2,3)                  1.4014         estimate D2E/DX2                !
 ! R5    R(2,11)                 1.4014         estimate D2E/DX2                !
 ! R6    R(3,4)                  1.4014         estimate D2E/DX2                !
 ! R7    R(3,14)                 1.4014         estimate D2E/DX2                !
 ! R8    R(4,5)                  1.4014         estimate D2E/DX2                !
 ! R9    R(4,8)                  1.07           estimate D2E/DX2                !
 ! R10   R(5,6)                  1.4014         estimate D2E/DX2                !
 ! R11   R(5,9)                  1.07           estimate D2E/DX2                !
 ! R12   R(6,10)                 1.07           estimate D2E/DX2                !
 ! R13   R(11,12)                1.4014         estimate D2E/DX2                !
 ! R14   R(11,15)                1.07           estimate D2E/DX2                !
 ! R15   R(12,13)                1.4014         estimate D2E/DX2                !
 ! R16   R(12,17)                1.4014         estimate D2E/DX2                !
 ! R17   R(13,14)                1.4014         estimate D2E/DX2                !
 ! R18   R(13,20)                1.4014         estimate D2E/DX2                !
 ! R19   R(14,16)                1.07           estimate D2E/DX2                !
 ! R20   R(17,18)                1.4014         estimate D2E/DX2                !
 ! R21   R(17,21)                1.07           estimate D2E/DX2                !
 ! R22   R(18,19)                1.4014         estimate D2E/DX2                !
 ! R23   R(18,23)                1.4014         estimate D2E/DX2                !
 ! R24   R(19,20)                1.4014         estimate D2E/DX2                !
 ! R25   R(19,24)                1.4014         estimate D2E/DX2                !
 ! R26   R(20,22)                1.07           estimate D2E/DX2                !
 ! R27   R(23,25)                1.07           estimate D2E/DX2                !
 ! R28   R(23,36)                1.4014         estimate D2E/DX2                !
 ! R29   R(24,26)                1.07           estimate D2E/DX2                !
 ! R30   R(24,35)                1.4014         estimate D2E/DX2                !
 ! R31   R(27,28)                1.4014         estimate D2E/DX2                !
 ! R32   R(27,31)                1.07           estimate D2E/DX2                !
 ! R33   R(27,36)                1.4014         estimate D2E/DX2                !
 ! R34   R(28,29)                1.4014         estimate D2E/DX2                !
 ! R35   R(28,32)                1.07           estimate D2E/DX2                !
 ! R36   R(29,30)                1.4014         estimate D2E/DX2                !
 ! R37   R(29,33)                1.07           estimate D2E/DX2                !
 ! R38   R(30,34)                1.07           estimate D2E/DX2                !
 ! R39   R(30,35)                1.4014         estimate D2E/DX2                !
 ! R40   R(35,36)                1.4014         estimate D2E/DX2                !
 ! A1    A(2,1,6)              120.0            estimate D2E/DX2                !
 ! A2    A(2,1,7)              120.0            estimate D2E/DX2                !
 ! A3    A(6,1,7)              120.0            estimate D2E/DX2                !
 ! A4    A(1,2,3)              120.0            estimate D2E/DX2                !
 ! A5    A(1,2,11)             120.0            estimate D2E/DX2                !
 ! A6    A(3,2,11)             120.0            estimate D2E/DX2                !
 ! A7    A(2,3,4)              120.0            estimate D2E/DX2                !
 ! A8    A(2,3,14)             120.0            estimate D2E/DX2                !
 ! A9    A(4,3,14)             120.0            estimate D2E/DX2                !
 ! A10   A(3,4,5)              120.0            estimate D2E/DX2                !
 ! A11   A(3,4,8)              120.0            estimate D2E/DX2                !
 ! A12   A(5,4,8)              120.0            estimate D2E/DX2                !
 ! A13   A(4,5,6)              120.0            estimate D2E/DX2                !
 ! A14   A(4,5,9)              120.0            estimate D2E/DX2                !
 ! A15   A(6,5,9)              120.0            estimate D2E/DX2                !
 ! A16   A(1,6,5)              120.0            estimate D2E/DX2                !
 ! A17   A(1,6,10)             120.0            estimate D2E/DX2                !
 ! A18   A(5,6,10)             120.0            estimate D2E/DX2                !
 ! A19   A(2,11,12)            120.0            estimate D2E/DX2                !
 ! A20   A(2,11,15)            120.0            estimate D2E/DX2                !
 ! A21   A(12,11,15)           120.0            estimate D2E/DX2                !
 ! A22   A(11,12,13)           120.0            estimate D2E/DX2                !
 ! A23   A(11,12,17)           120.0            estimate D2E/DX2                !
 ! A24   A(13,12,17)           120.0            estimate D2E/DX2                !
 ! A25   A(12,13,14)           120.0            estimate D2E/DX2                !
 ! A26   A(12,13,20)           120.0            estimate D2E/DX2                !
 ! A27   A(14,13,20)           120.0            estimate D2E/DX2                !
 ! A28   A(3,14,13)            120.0            estimate D2E/DX2                !
 ! A29   A(3,14,16)            120.0            estimate D2E/DX2                !
 ! A30   A(13,14,16)           120.0            estimate D2E/DX2                !
 ! A31   A(12,17,18)           120.0            estimate D2E/DX2                !
 ! A32   A(12,17,21)           120.0            estimate D2E/DX2                !
 ! A33   A(18,17,21)           120.0            estimate D2E/DX2                !
 ! A34   A(17,18,19)           120.0            estimate D2E/DX2                !
 ! A35   A(17,18,23)           120.0            estimate D2E/DX2                !
 ! A36   A(19,18,23)           120.0            estimate D2E/DX2                !
 ! A37   A(18,19,20)           120.0            estimate D2E/DX2                !
 ! A38   A(18,19,24)           120.0            estimate D2E/DX2                !
 ! A39   A(20,19,24)           120.0            estimate D2E/DX2                !
 ! A40   A(13,20,19)           120.0            estimate D2E/DX2                !
 ! A41   A(13,20,22)           120.0            estimate D2E/DX2                !
 ! A42   A(19,20,22)           120.0            estimate D2E/DX2                !
 ! A43   A(18,23,25)           120.0            estimate D2E/DX2                !
 ! A44   A(18,23,36)           120.0            estimate D2E/DX2                !
 ! A45   A(25,23,36)           120.0            estimate D2E/DX2                !
 ! A46   A(19,24,26)           120.0            estimate D2E/DX2                !
 ! A47   A(19,24,35)           120.0            estimate D2E/DX2                !
 ! A48   A(26,24,35)           120.0            estimate D2E/DX2                !
 ! A49   A(28,27,31)           120.0            estimate D2E/DX2                !
 ! A50   A(28,27,36)           120.0            estimate D2E/DX2                !
 ! A51   A(31,27,36)           120.0            estimate D2E/DX2                !
 ! A52   A(27,28,29)           120.0            estimate D2E/DX2                !
 ! A53   A(27,28,32)           120.0            estimate D2E/DX2                !
 ! A54   A(29,28,32)           120.0            estimate D2E/DX2                !
 ! A55   A(28,29,30)           120.0            estimate D2E/DX2                !
 ! A56   A(28,29,33)           120.0            estimate D2E/DX2                !
 ! A57   A(30,29,33)           120.0            estimate D2E/DX2                !
 ! A58   A(29,30,34)           120.0            estimate D2E/DX2                !
 ! A59   A(29,30,35)           120.0            estimate D2E/DX2                !
 ! A60   A(34,30,35)           120.0            estimate D2E/DX2                !
 ! A61   A(24,35,30)           120.0            estimate D2E/DX2                !
 ! A62   A(24,35,36)           120.0            estimate D2E/DX2                !
 ! A63   A(30,35,36)           120.0            estimate D2E/DX2                !
 ! A64   A(23,36,27)           120.0            estimate D2E/DX2                !
 ! A65   A(23,36,35)           120.0            estimate D2E/DX2                !
 ! A66   A(27,36,35)           120.0            estimate D2E/DX2                !
 ! D1    D(6,1,2,3)              0.0002         estimate D2E/DX2                !
 ! D2    D(6,1,2,11)          -179.9998         estimate D2E/DX2                !
 ! D3    D(7,1,2,3)            179.9999         estimate D2E/DX2                !
 ! D4    D(7,1,2,11)            -0.0001         estimate D2E/DX2                !
 ! D5    D(2,1,6,5)             -0.0002         estimate D2E/DX2                !
 ! D6    D(2,1,6,10)           180.0            estimate D2E/DX2                !
 ! D7    D(7,1,6,5)            180.0            estimate D2E/DX2                !
 ! D8    D(7,1,6,10)             0.0002         estimate D2E/DX2                !
 ! D9    D(1,2,3,4)             -0.0001         estimate D2E/DX2                !
 ! D10   D(1,2,3,14)          -180.0            estimate D2E/DX2                !
 ! D11   D(11,2,3,4)           179.9999         estimate D2E/DX2                !
 ! D12   D(11,2,3,14)            0.0            estimate D2E/DX2                !
 ! D13   D(1,2,11,12)          179.9999         estimate D2E/DX2                !
 ! D14   D(1,2,11,15)           -0.0002         estimate D2E/DX2                !
 ! D15   D(3,2,11,12)           -0.0001         estimate D2E/DX2                !
 ! D16   D(3,2,11,15)          179.9998         estimate D2E/DX2                !
 ! D17   D(2,3,4,5)              0.0001         estimate D2E/DX2                !
 ! D18   D(2,3,4,8)           -179.9999         estimate D2E/DX2                !
 ! D19   D(14,3,4,5)           180.0            estimate D2E/DX2                !
 ! D20   D(14,3,4,8)             0.0            estimate D2E/DX2                !
 ! D21   D(2,3,14,13)            0.0            estimate D2E/DX2                !
 ! D22   D(2,3,14,16)         -179.9999         estimate D2E/DX2                !
 ! D23   D(4,3,14,13)         -179.9998         estimate D2E/DX2                !
 ! D24   D(4,3,14,16)            0.0002         estimate D2E/DX2                !
 ! D25   D(3,4,5,6)             -0.0002         estimate D2E/DX2                !
 ! D26   D(3,4,5,9)            180.0            estimate D2E/DX2                !
 ! D27   D(8,4,5,6)            179.9998         estimate D2E/DX2                !
 ! D28   D(8,4,5,9)              0.0            estimate D2E/DX2                !
 ! D29   D(4,5,6,1)              0.0002         estimate D2E/DX2                !
 ! D30   D(4,5,6,10)          -180.0            estimate D2E/DX2                !
 ! D31   D(9,5,6,1)           -179.9999         estimate D2E/DX2                !
 ! D32   D(9,5,6,10)            -0.0001         estimate D2E/DX2                !
 ! D33   D(2,11,12,13)           0.0001         estimate D2E/DX2                !
 ! D34   D(2,11,12,17)        -179.9999         estimate D2E/DX2                !
 ! D35   D(15,11,12,13)       -179.9998         estimate D2E/DX2                !
 ! D36   D(15,11,12,17)          0.0002         estimate D2E/DX2                !
 ! D37   D(11,12,13,14)          0.0            estimate D2E/DX2                !
 ! D38   D(11,12,13,20)        179.9998         estimate D2E/DX2                !
 ! D39   D(17,12,13,14)        180.0            estimate D2E/DX2                !
 ! D40   D(17,12,13,20)         -0.0001         estimate D2E/DX2                !
 ! D41   D(11,12,17,18)       -180.0            estimate D2E/DX2                !
 ! D42   D(11,12,17,21)          0.0            estimate D2E/DX2                !
 ! D43   D(13,12,17,18)          0.0            estimate D2E/DX2                !
 ! D44   D(13,12,17,21)        180.0            estimate D2E/DX2                !
 ! D45   D(12,13,14,3)           0.0            estimate D2E/DX2                !
 ! D46   D(12,13,14,16)        179.9999         estimate D2E/DX2                !
 ! D47   D(20,13,14,3)        -179.9999         estimate D2E/DX2                !
 ! D48   D(20,13,14,16)          0.0            estimate D2E/DX2                !
 ! D49   D(12,13,20,19)          0.0002         estimate D2E/DX2                !
 ! D50   D(12,13,20,22)        180.0            estimate D2E/DX2                !
 ! D51   D(14,13,20,19)       -179.9999         estimate D2E/DX2                !
 ! D52   D(14,13,20,22)         -0.0001         estimate D2E/DX2                !
 ! D53   D(12,17,18,19)          0.0            estimate D2E/DX2                !
 ! D54   D(12,17,18,23)       -179.9998         estimate D2E/DX2                !
 ! D55   D(21,17,18,19)       -180.0            estimate D2E/DX2                !
 ! D56   D(21,17,18,23)          0.0002         estimate D2E/DX2                !
 ! D57   D(17,18,19,20)          0.0001         estimate D2E/DX2                !
 ! D58   D(17,18,19,24)       -179.9999         estimate D2E/DX2                !
 ! D59   D(23,18,19,20)        179.9999         estimate D2E/DX2                !
 ! D60   D(23,18,19,24)          0.0            estimate D2E/DX2                !
 ! D61   D(17,18,23,25)          0.0            estimate D2E/DX2                !
 ! D62   D(17,18,23,36)        179.9998         estimate D2E/DX2                !
 ! D63   D(19,18,23,25)       -179.9999         estimate D2E/DX2                !
 ! D64   D(19,18,23,36)          0.0            estimate D2E/DX2                !
 ! D65   D(18,19,20,13)         -0.0002         estimate D2E/DX2                !
 ! D66   D(18,19,20,22)       -179.9999         estimate D2E/DX2                !
 ! D67   D(24,19,20,13)        179.9998         estimate D2E/DX2                !
 ! D68   D(24,19,20,22)          0.0            estimate D2E/DX2                !
 ! D69   D(18,19,24,26)       -180.0            estimate D2E/DX2                !
 ! D70   D(18,19,24,35)          0.0001         estimate D2E/DX2                !
 ! D71   D(20,19,24,26)          0.0001         estimate D2E/DX2                !
 ! D72   D(20,19,24,35)       -179.9998         estimate D2E/DX2                !
 ! D73   D(18,23,36,27)       -180.0            estimate D2E/DX2                !
 ! D74   D(18,23,36,35)          0.0            estimate D2E/DX2                !
 ! D75   D(25,23,36,27)         -0.0001         estimate D2E/DX2                !
 ! D76   D(25,23,36,35)        179.9998         estimate D2E/DX2                !
 ! D77   D(19,24,35,30)        179.9998         estimate D2E/DX2                !
 ! D78   D(19,24,35,36)         -0.0001         estimate D2E/DX2                !
 ! D79   D(26,24,35,30)         -0.0002         estimate D2E/DX2                !
 ! D80   D(26,24,35,36)        180.0            estimate D2E/DX2                !
 ! D81   D(31,27,28,29)       -179.9999         estimate D2E/DX2                !
 ! D82   D(31,27,28,32)          0.0            estimate D2E/DX2                !
 ! D83   D(36,27,28,29)          0.0001         estimate D2E/DX2                !
 ! D84   D(36,27,28,32)        180.0            estimate D2E/DX2                !
 ! D85   D(28,27,36,23)        179.9998         estimate D2E/DX2                !
 ! D86   D(28,27,36,35)         -0.0002         estimate D2E/DX2                !
 ! D87   D(31,27,36,23)         -0.0002         estimate D2E/DX2                !
 ! D88   D(31,27,36,35)        179.9998         estimate D2E/DX2                !
 ! D89   D(27,28,29,30)          0.0            estimate D2E/DX2                !
 ! D90   D(27,28,29,33)       -179.9999         estimate D2E/DX2                !
 ! D91   D(32,28,29,30)       -179.9999         estimate D2E/DX2                !
 ! D92   D(32,28,29,33)          0.0002         estimate D2E/DX2                !
 ! D93   D(28,29,30,34)       -179.9999         estimate D2E/DX2                !
 ! D94   D(28,29,30,35)          0.0            estimate D2E/DX2                !
 ! D95   D(33,29,30,34)         -0.0001         estimate D2E/DX2                !
 ! D96   D(33,29,30,35)        179.9999         estimate D2E/DX2                !
 ! D97   D(29,30,35,24)       -180.0            estimate D2E/DX2                !
 ! D98   D(29,30,35,36)         -0.0001         estimate D2E/DX2                !
 ! D99   D(34,30,35,24)          0.0            estimate D2E/DX2                !
 ! D100  D(34,30,35,36)        179.9999         estimate D2E/DX2                !
 ! D101  D(24,35,36,23)          0.0001         estimate D2E/DX2                !
 ! D102  D(24,35,36,27)       -179.9999         estimate D2E/DX2                !
 ! D103  D(30,35,36,23)       -179.9998         estimate D2E/DX2                !
 ! D104  D(30,35,36,27)          0.0002         estimate D2E/DX2                !
 --------------------------------------------------------------------------------
 Trust Radius=3.00D-01 FncErr=1.00D-07 GrdErr=1.00D-06
 Number of steps in this run=    216 maximum allowed number of steps=    216.
 GradGradGradGradGradGradGradGradGradGradGradGradGradGradGradGradGradGrad

                          Input orientation:                          
 ---------------------------------------------------------------------
 Center     Atomic      Atomic             Coordinates (Angstroms)
 Number     Number       Type             X           Y           Z
 ---------------------------------------------------------------------
      1          6           0        0.289785    2.132477    1.628285
      2          6           0        1.621885    1.878437    1.274882
      3          6           0        2.308441    2.772048    0.441803
      4          6           0        1.662897    3.919699   -0.037875
      5          6           0        0.330796    4.173740    0.315527
      6          6           0       -0.355761    3.280127    1.148605
      7          1           0       -0.234417    1.450185    2.264358
      8          1           0        2.187097    4.601991   -0.673951
      9          1           0       -0.162092    5.049997   -0.050718
     10          1           0       -1.372849    3.474093    1.418435
     11          6           0        2.267429    0.730785    1.754559
     12          6           0        3.599529    0.476743    1.401154
     13          6           0        4.286086    1.370354    0.568075
     14          6           0        3.640542    2.518007    0.088400
     15          1           0        1.743230    0.048495    2.390636
     16          1           0        4.164743    3.200300   -0.547673
     17          6           0        4.245073   -0.670910    1.880830
     18          6           0        5.577173   -0.924951    1.527426
     19          6           0        6.263730   -0.031339    0.694347
     20          6           0        5.618186    1.116314    0.214673
     21          1           0        3.720872   -1.353202    2.516904
     22          1           0        6.142387    1.798606   -0.421402
     23          6           0        6.222715   -2.072606    2.007098
     24          6           0        7.595829   -0.285382    0.340941
     25          1           0        5.698514   -2.754899    2.643170
     26          1           0        8.120030    0.396910   -0.295133
     27          6           0        8.200357   -3.474304    2.133363
     28          6           0        9.532455   -3.728349    1.779953
     29          6           0       10.219011   -2.834738    0.946873
     30          6           0        9.573469   -1.687083    0.467202
     31          1           0        7.676157   -4.156595    2.769440
     32          1           0       10.025341   -4.604609    2.146193
     33          1           0       11.236096   -3.028709    0.677035
     34          1           0       10.097669   -1.004792   -0.168874
     35          6           0        8.241371   -1.433038    0.820612
     36          6           0        7.554815   -2.326649    1.653691
 ---------------------------------------------------------------------
                    Distance matrix (angstroms):
                    1          2          3          4          5
     1  C    0.000000
     2  C    1.401400   0.000000
     3  C    2.427296   1.401400   0.000000
     4  C    2.802800   2.427296   1.401400   0.000000
     5  C    2.427296   2.802800   2.427296   1.401400   0.000000
     6  C    1.401400   2.427296   2.802800   2.427296   1.401400
     7  H    1.070000   2.146700   3.396345   3.872800   3.396345
     8  H    3.872800   3.396345   2.146700   1.070000   2.146700
     9  H    3.396345   3.872800   3.396345   2.146700   1.070000
    10  H    2.146700   3.396345   3.872800   3.396345   2.146700
    11  C    2.427296   1.401400   2.427296   3.707756   4.204200
    12  C    3.707756   2.427296   2.802800   4.204200   5.052820
    13  C    4.204200   2.802800   2.427296   3.707756   4.854592
    14  C    3.707756   2.427296   1.401400   2.427296   3.707756
    15  H    2.652671   2.146700   3.396345   4.570596   4.828943
    16  H    4.570596   3.396345   2.146700   2.652671   4.048685
    17  C    4.854592   3.707756   4.204200   5.605600   6.422022
    18  C    6.108561   4.854592   5.052820   6.422022   7.415512
    19  C    6.422022   5.052820   4.854592   6.108561   7.281888
    20  C    5.605600   4.204200   3.707756   4.854592   6.108561
    21  H    4.971113   4.048685   4.828943   6.210124   6.847317
    22  H    6.210124   4.828943   4.048685   4.971113   6.321306
    23  C    7.281888   6.108561   6.422022   7.802665   8.751740
    24  C    7.802665   6.422022   6.108561   7.281888   8.524383
    25  H    7.360081   6.321306   6.847317   8.247695   9.068426
    26  H    8.247695   6.847317   6.321306   7.360081   8.678105
    27  C    9.709184   8.524383   8.751740  10.105639  11.123268
    28  C   10.945284   9.709184   9.809800  11.123268  12.217122
    29  C   11.123268   9.809800   9.709184  10.945284  12.136480
    30  C   10.105639   8.751740   8.524383   9.709184  10.945284
    31  H    9.767966   8.678105   9.068426  10.453078  11.374114
    32  H   11.850638  10.649278  10.810668  12.139376  13.205868
    33  H   12.139376  10.810668  10.649278  11.850638  13.074078
    34  H   10.453078   9.068426   8.678105   9.767966  11.065425
    35  C    8.751740   7.415512   7.281888   8.524383   9.709184
    36  C    8.524383   7.281888   7.415512   8.751740   9.809800
                    6          7          8          9         10
     6  C    0.000000
     7  H    2.146700   0.000000
     8  H    3.396345   4.942800   0.000000
     9  H    2.146700   4.280590   2.471400   0.000000
    10  H    1.070000   2.471400   4.280590   2.471400   0.000000
    11  C    3.707756   2.652671   4.570596   5.274200   4.570596
    12  C    4.854592   4.048685   4.828943   6.096915   5.805941
    13  C    5.052820   4.828943   4.048685   5.805941   6.096915
    14  C    4.204200   4.570596   2.652671   4.570596   5.274200
    15  H    4.048685   2.427296   5.506636   5.882642   4.731791
    16  H    4.828943   5.506636   2.427296   4.731791   5.882642
    17  C    6.108561   4.971113   6.210124   7.475476   6.996850
    18  C    7.281888   6.321306   6.847317   8.433842   8.225951
    19  C    7.415512   6.847317   6.321306   8.225951   8.433842
    20  C    6.422022   6.210124   4.971113   6.996850   7.475476
    21  H    6.321306   4.854592   6.928083   7.916504   7.103197
    22  H    6.847317   6.928083   4.854592   7.103197   7.916504
    23  C    8.524383   7.360081   8.247695   9.784265   9.423640
    24  C    8.751740   8.247695   7.360081   9.423640   9.784265
    25  H    8.678105   7.281888   8.800975  10.125222   9.502868
    26  H    9.068426   8.800975   7.281888   9.502867  10.125222
    27  C   10.945284   9.767966  10.453078  12.139376  11.850638
    28  C   12.136480  11.065425  11.374114  13.205868  13.074078
    29  C   12.217122  11.374114  11.065425  13.074078  13.205868
    30  C   11.123268  10.453078   9.767966  11.850638  12.139376
    31  H   11.065425   9.709184  10.894931  12.415827  11.913736
    32  H   13.074078  11.913736  12.415827  14.206393  13.989774
    33  H   13.205868  12.415827  11.913736  13.989774  14.206393
    34  H   11.374114  10.894931   9.709184  11.913736  12.415827
    35  C    9.809800   9.068426   8.678105  10.649278  10.810668
    36  C    9.709184   8.678105   9.068426  10.810668  10.649278
                   11         12         13         14         15
    11  C    0.000000
    12  C    1.401400   0.000000
    13  C    2.427296   1.401400   0.000000
    14  C    2.802800   2.427296   1.401400   0.000000
    15  H    1.070000   2.146700   3.396345   3.872800   0.000000
    16  H    3.872800   3.396345   2.146700   1.070000   4.942800
    17  C    2.427296   1.401400   2.427296   3.707756   2.652671
    18  C    3.707756   2.427296   2.802800   4.204200   4.048685
    19  C    4.204200   2.802800   2.427296   3.707756   4.828943
    20  C    3.707756   2.427296   1.401400   2.427296   4.570596
    21  H    2.652671   2.146700   3.396345   4.570596   2.427296
    22  H    4.570596   3.396345   2.146700   2.652671   5.506636
    23  C    4.854592   3.707756   4.204200   5.605600   4.971113
    24  C    5.605600   4.204200   3.707756   4.854592   6.210124
    25  H    4.971113   4.048685   4.828943   6.210124   4.854592
    26  H    6.210124   4.828943   4.048685   4.971113   6.928083
    27  C    7.281888   6.108561   6.422022   7.802665   7.360081
    28  C    8.524383   7.281888   7.415512   8.751740   8.678105
    29  C    8.751740   7.415512   7.281888   8.524383   9.068426
    30  C    7.802665   6.422022   6.108561   7.281888   8.247695
    31  H    7.360081   6.321307   6.847317   8.247695   7.281888
    32  H    9.423640   8.225951   8.433842   9.784265   9.502868
    33  H    9.784265   8.433842   8.225951   9.423640  10.125222
    34  H    8.247695   6.847317   6.321306   7.360081   8.800975
    35  C    6.422022   5.052820   4.854592   6.108561   6.847317
    36  C    6.108561   4.854592   5.052820   6.422022   6.321306
                   16         17         18         19         20
    16  H    0.000000
    17  C    4.570596   0.000000
    18  C    4.828943   1.401400   0.000000
    19  C    4.048685   2.427296   1.401400   0.000000
    20  C    2.652671   2.802800   2.427296   1.401400   0.000000
    21  H    5.506636   1.070000   2.146700   3.396345   3.872800
    22  H    2.427296   3.872800   3.396345   2.146700   1.070000
    23  C    6.210124   2.427296   1.401400   2.427296   3.707756
    24  C    4.971113   3.707756   2.427296   1.401400   2.427296
    25  H    6.928083   2.652672   2.146700   3.396345   4.570596
    26  H    4.854592   4.570596   3.396345   2.146700   2.652671
    27  C    8.247695   4.854592   3.707756   4.204200   5.605600
    28  C    9.068426   6.108561   4.854592   5.052820   6.422022
    29  C    8.678105   6.422022   5.052820   4.854592   6.108561
    30  C    7.360081   5.605600   4.204200   3.707756   4.854592
    31  H    8.800975   4.971113   4.048685   4.828943   6.210124
    32  H   10.125222   6.996850   5.805941   6.096915   7.475476
    33  H    9.502868   7.475476   6.096915   5.805941   6.996850
    34  H    7.281888   6.210124   4.828943   4.048685   4.971113
    35  C    6.321306   4.204200   2.802800   2.427296   3.707756
    36  C    6.847317   3.707756   2.427296   2.802800   4.204200
                   21         22         23         24         25
    21  H    0.000000
    22  H    4.942800   0.000000
    23  C    2.652671   4.570596   0.000000
    24  C    4.570596   2.652671   2.802800   0.000000
    25  H    2.427296   5.506636   1.070000   3.872800   0.000000
    26  H    5.506636   2.427296   3.872800   1.070000   4.942800
    27  C    4.971113   6.210124   2.427296   3.707756   2.652671
    28  C    6.321306   6.847317   3.707756   4.204200   4.048685
    29  C    6.847317   6.321306   4.204200   3.707756   4.828943
    30  C    6.210124   4.971113   3.707756   2.427296   4.570596
    31  H    4.854592   6.928083   2.652672   4.570596   2.427296
    32  H    7.103197   7.916504   4.570596   5.274200   4.731791
    33  H    7.916504   7.103197   5.274200   4.570596   5.882642
    34  H    6.928083   4.854592   4.570596   2.652671   5.506636
    35  C    4.828943   4.048685   2.427296   1.401400   3.396345
    36  C    4.048685   4.828943   1.401400   2.427296   2.146700
                   26         27         28         29         30
    26  H    0.000000
    27  C    4.570596   0.000000
    28  C    4.828943   1.401400   0.000000
    29  C    4.048685   2.427296   1.401400   0.000000
    30  C    2.652671   2.802800   2.427296   1.401400   0.000000
    31  H    5.506636   1.070000   2.146700   3.396345   3.872800
    32  H    5.882642   2.146700   1.070000   2.146700   3.396345
    33  H    4.731791   3.396345   2.146700   1.070000   2.146700
    34  H    2.427296   3.872800   3.396345   2.146700   1.070000
    35  C    2.146700   2.427296   2.802800   2.427296   1.401400
    36  C    3.396345   1.401400   2.427296   2.802800   2.427296
                   31         32         33         34         35
    31  H    0.000000
    32  H    2.471400   0.000000
    33  H    4.280590   2.471400   0.000000
    34  H    4.942800   4.280590   2.471400   0.000000
    35  C    3.396345   3.872800   3.396345   2.146700   0.000000
    36  C    2.146700   3.396345   3.872800   3.396345   1.401400
                   36
    36  C    0.000000
 Stoichiometry    C22H14
 Framework group  C1[X(C22H14)]
 Deg. of freedom   102
 Full point group                 C1      NOp   1
 Largest Abelian subgroup         C1      NOp   1
 Largest concise Abelian subgroup C1      NOp   1
                         Standard orientation:                         
 ---------------------------------------------------------------------
 Center     Atomic      Atomic             Coordinates (Angstroms)
 Number     Number       Type             X           Y           Z
 ---------------------------------------------------------------------
      1          6           0       -4.854592    1.401400    0.000002
      2          6           0       -3.640944    0.700700   -0.000001
      3          6           0       -3.640944   -0.700700   -0.000001
      4          6           0       -4.854592   -1.401400    0.000004
      5          6           0       -6.068240   -0.700700    0.000007
      6          6           0       -6.068240    0.700700    0.000009
      7          1           0       -4.854592    2.471400    0.000004
      8          1           0       -4.854592   -2.471400    0.000005
      9          1           0       -6.994887   -1.235700    0.000010
     10          1           0       -6.994887    1.235700    0.000012
     11          6           0       -2.427296    1.401400   -0.000003
     12          6           0       -1.213648    0.700700   -0.000004
     13          6           0       -1.213648   -0.700700   -0.000004
     14          6           0       -2.427296   -1.401400   -0.000003
     15          1           0       -2.427296    2.471400   -0.000007
     16          1           0       -2.427296   -2.471400   -0.000005
     17          6           0        0.000000    1.401400   -0.000005
     18          6           0        1.213648    0.700700   -0.000006
     19          6           0        1.213648   -0.700700   -0.000007
     20          6           0        0.000000   -1.401400   -0.000008
     21          1           0        0.000000    2.471400   -0.000005
     22          1           0        0.000000   -2.471400   -0.000007
     23          6           0        2.427296    1.401400   -0.000003
     24          6           0        2.427296   -1.401400   -0.000006
     25          1           0        2.427296    2.471400   -0.000001
     26          1           0        2.427296   -2.471400   -0.000007
     27          6           0        4.854592    1.401400    0.000002
     28          6           0        6.068240    0.700700    0.000008
     29          6           0        6.068240   -0.700700    0.000010
     30          6           0        4.854592   -1.401400    0.000005
     31          1           0        4.854592    2.471400   -0.000001
     32          1           0        6.994887    1.235700    0.000011
     33          1           0        6.994887   -1.235700    0.000016
     34          1           0        4.854592   -2.471400    0.000007
     35          6           0        3.640944   -0.700700   -0.000001
     36          6           0        3.640944    0.700700   -0.000001
 ---------------------------------------------------------------------
 Rotational constants (GHZ):      1.3509789      0.1201976      0.1103773
 Standard basis: CC-pVDZ (5D, 7F)
 There are   400 symmetry adapted cartesian basis functions of A   symmetry.
 There are   378 symmetry adapted basis functions of A   symmetry.
   378 basis functions,   824 primitive gaussians,   400 cartesian basis functions
    73 alpha electrons       73 beta electrons
       nuclear repulsion energy      1508.4086470731 Hartrees.
 NAtoms=   36 NActive=   36 NUniq=   36 SFac= 1.00D+00 NAtFMM=   60 NAOKFM=F Big=F
 Integral buffers will be    131072 words long.
 Raffenetti 2 integral format.
 Two-electron integral symmetry is turned on.
 One-electron integrals computed using PRISM.
 NBasis=   378 RedAO= T EigKep=  8.41D-05  NBF=   378
 NBsUse=   378 1.00D-06 EigRej= -1.00D+00 NBFU=   378
 ExpMin= 1.22D-01 ExpMax= 6.67D+03 ExpMxC= 2.28D+02 IAcc=1 IRadAn=         1 AccDes= 0.00D+00
 Harris functional with IExCor= 1009 and IRadAn=       1 diagonalized for initial guess.
 HarFok:  IExCor= 1009 AccDes= 0.00D+00 IRadAn=         1 IDoV= 1 UseB2=F ITyADJ=14
 ICtDFT=  3500011 ScaDFX=  1.000000  1.000000  1.000000  1.000000
 FoFCou: FMM=F IPFlag=           0 FMFlag=      100000 FMFlg1=           0
         NFxFlg=           0 DoJE=T BraDBF=F KetDBF=T FulRan=T
         wScrn=  0.000000 ICntrl=     500 IOpCl=  0 I1Cent=   200000004 NGrid=           0
         NMat0=    1 NMatS0=      1 NMatT0=    0 NMatD0=    1 NMtDS0=    0 NMtDT0=    0
 Petite list used in FoFCou.
 Requested convergence on RMS density matrix=1.00D-08 within 128 cycles.
 Requested convergence on MAX density matrix=1.00D-06.
 Requested convergence on             energy=1.00D-06.
 No special actions if energy rises.
 Integral accuracy reduced to 1.0D-05 until final iterations.
 Initial convergence to 1.0D-05 achieved.  Increase integral accuracy.
 SCF Done:  E(RM06) =  -846.135826659     A.U. after   15 cycles
            NFock= 15  Conv=0.91D-08     -V/T= 2.0056

 **********************************************************************

            Population analysis using the SCF density.

 **********************************************************************

 Orbital symmetries:
       Occupied  (A) (A) (A) (A) (A) (A) (A) (A) (A) (A) (A) (A)
                 (A) (A) (A) (A) (A) (A) (A) (A) (A) (A) (A) (A)
                 (A) (A) (A) (A) (A) (A) (A) (A) (A) (A) (A) (A)
                 (A) (A) (A) (A) (A) (A) (A) (A) (A) (A) (A) (A)
                 (A) (A) (A) (A) (A) (A) (A) (A) (A) (A) (A) (A)
                 (A) (A) (A) (A) (A) (A) (A) (A) (A) (A) (A) (A)
                 (A)
       Virtual   (A) (A) (A) (A) (A) (A) (A) (A) (A) (A) (A) (A)
                 (A) (A) (A) (A) (A) (A) (A) (A) (A) (A) (A) (A)
                 (A) (A) (A) (A) (A) (A) (A) (A) (A) (A) (A) (A)
                 (A) (A) (A) (A) (A) (A) (A) (A) (A) (A) (A) (A)
                 (A) (A) (A) (A) (A) (A) (A) (A) (A) (A) (A) (A)
                 (A) (A) (A) (A) (A) (A) (A) (A) (A) (A) (A) (A)
                 (A) (A) (A) (A) (A) (A) (A) (A) (A) (A) (A) (A)
                 (A) (A) (A) (A) (A) (A) (A) (A) (A) (A) (A) (A)
                 (A) (A) (A) (A) (A) (A) (A) (A) (A) (A) (A) (A)
                 (A) (A) (A) (A) (A) (A) (A) (A) (A) (A) (A) (A)
                 (A) (A) (A) (A) (A) (A) (A) (A) (A) (A) (A) (A)
                 (A) (A) (A) (A) (A) (A) (A) (A) (A) (A) (A) (A)
                 (A) (A) (A) (A) (A) (A) (A) (A) (A) (A) (A) (A)
                 (A) (A) (A) (A) (A) (A) (A) (A) (A) (A) (A) (A)
                 (A) (A) (A) (A) (A) (A) (A) (A) (A) (A) (A) (A)
                 (A) (A) (A) (A) (A) (A) (A) (A) (A) (A) (A) (A)
                 (A) (A) (A) (A) (A) (A) (A) (A) (A) (A) (A) (A)
                 (A) (A) (A) (A) (A) (A) (A) (A) (A) (A) (A) (A)
                 (A) (A) (A) (A) (A) (A) (A) (A) (A) (A) (A) (A)
                 (A) (A) (A) (A) (A) (A) (A) (A) (A) (A) (A) (A)
                 (A) (A) (A) (A) (A) (A) (A) (A) (A) (A) (A) (A)
                 (A) (A) (A) (A) (A) (A) (A) (A) (A) (A) (A) (A)
                 (A) (A) (A) (A) (A) (A) (A) (A) (A) (A) (A) (A)
                 (A) (A) (A) (A) (A) (A) (A) (A) (A) (A) (A) (A)
                 (A) (A) (A) (A) (A) (A) (A) (A) (A) (A) (A) (A)
                 (A) (A) (A) (A) (A)
 The electronic state is 1-A.
 Alpha  occ. eigenvalues --  -10.26252 -10.26251 -10.26209 -10.26204 -10.26200
 Alpha  occ. eigenvalues --  -10.26200 -10.26155 -10.26155 -10.25828 -10.25828
 Alpha  occ. eigenvalues --  -10.25785 -10.25785 -10.25697 -10.25697 -10.25697
 Alpha  occ. eigenvalues --  -10.25697 -10.25609 -10.25607 -10.25605 -10.25605
 Alpha  occ. eigenvalues --  -10.25604 -10.25602  -0.91386  -0.89780  -0.87244
 Alpha  occ. eigenvalues --   -0.83830  -0.81036  -0.79654  -0.79459  -0.76912
 Alpha  occ. eigenvalues --   -0.76062  -0.73465  -0.69276  -0.69091  -0.63769
 Alpha  occ. eigenvalues --   -0.63219  -0.63070  -0.61839  -0.60894  -0.58488
 Alpha  occ. eigenvalues --   -0.53906  -0.53655  -0.52754  -0.50770  -0.49130
 Alpha  occ. eigenvalues --   -0.47568  -0.47277  -0.47101  -0.46510  -0.44370
 Alpha  occ. eigenvalues --   -0.43619  -0.43273  -0.43094  -0.43060  -0.42596
 Alpha  occ. eigenvalues --   -0.41133  -0.40981  -0.40265  -0.39682  -0.38068
 Alpha  occ. eigenvalues --   -0.37052  -0.36133  -0.35454  -0.34883  -0.33989
 Alpha  occ. eigenvalues --   -0.33518  -0.32387  -0.30343  -0.29246  -0.27081
 Alpha  occ. eigenvalues --   -0.25715  -0.22721  -0.17657
 Alpha virt. eigenvalues --   -0.09687  -0.04139  -0.01059   0.00325   0.02791
 Alpha virt. eigenvalues --    0.03091   0.03525   0.07569   0.07699   0.07700
 Alpha virt. eigenvalues --    0.08938   0.09360   0.09619   0.10552   0.11051
 Alpha virt. eigenvalues --    0.12171   0.12936   0.13876   0.13902   0.15705
 Alpha virt. eigenvalues --    0.15757   0.16433   0.19850   0.19966   0.20485
 Alpha virt. eigenvalues --    0.21532   0.24854   0.25228   0.26387   0.27610
 Alpha virt. eigenvalues --    0.27641   0.28161   0.29531   0.30709   0.30941
 Alpha virt. eigenvalues --    0.31217   0.31297   0.32413   0.33447   0.35347
 Alpha virt. eigenvalues --    0.36333   0.41360   0.41551   0.42031   0.43041
 Alpha virt. eigenvalues --    0.43496   0.43657   0.44359   0.44720   0.45421
 Alpha virt. eigenvalues --    0.45637   0.46505   0.46759   0.47063   0.47082
 Alpha virt. eigenvalues --    0.48491   0.48793   0.48805   0.48866   0.48999
 Alpha virt. eigenvalues --    0.49751   0.49947   0.50007   0.51572   0.51818
 Alpha virt. eigenvalues --    0.51822   0.52570   0.52616   0.52794   0.53149
 Alpha virt. eigenvalues --    0.53489   0.53870   0.54708   0.54779   0.54855
 Alpha virt. eigenvalues --    0.55100   0.55333   0.55469   0.56543   0.57045
 Alpha virt. eigenvalues --    0.58282   0.58437   0.59560   0.61954   0.62109
 Alpha virt. eigenvalues --    0.62210   0.62558   0.64199   0.64240   0.64913
 Alpha virt. eigenvalues --    0.65115   0.66615   0.66720   0.66999   0.67212
 Alpha virt. eigenvalues --    0.67260   0.69136   0.70858   0.71594   0.71827
 Alpha virt. eigenvalues --    0.72085   0.73295   0.74072   0.74485   0.77038
 Alpha virt. eigenvalues --    0.77136   0.81338   0.81594   0.81596   0.82833
 Alpha virt. eigenvalues --    0.83137   0.85316   0.85759   0.88365   0.88474
 Alpha virt. eigenvalues --    0.89875   0.90167   0.90619   0.90729   0.91026
 Alpha virt. eigenvalues --    0.92304   0.92624   0.92990   0.93234   0.94380
 Alpha virt. eigenvalues --    0.94409   0.94468   0.96837   0.96998   0.97031
 Alpha virt. eigenvalues --    0.97451   0.97941   0.98147   0.98398   0.99090
 Alpha virt. eigenvalues --    1.00495   1.01042   1.02064   1.02139   1.04567
 Alpha virt. eigenvalues --    1.04923   1.05122   1.05404   1.06312   1.08126
 Alpha virt. eigenvalues --    1.08268   1.08369   1.09216   1.09499   1.09674
 Alpha virt. eigenvalues --    1.10251   1.10790   1.14690   1.18606   1.21827
 Alpha virt. eigenvalues --    1.23733   1.28113   1.28433   1.29127   1.33421
 Alpha virt. eigenvalues --    1.35865   1.36677   1.37264   1.39238   1.39326
 Alpha virt. eigenvalues --    1.39885   1.40683   1.40970   1.41340   1.41837
 Alpha virt. eigenvalues --    1.43042   1.43811   1.44029   1.44737   1.46299
 Alpha virt. eigenvalues --    1.46764   1.47017   1.47222   1.47499   1.48376
 Alpha virt. eigenvalues --    1.49350   1.49799   1.49976   1.52676   1.53887
 Alpha virt. eigenvalues --    1.55341   1.55752   1.57787   1.58112   1.58964
 Alpha virt. eigenvalues --    1.59463   1.60138   1.60347   1.60988   1.63587
 Alpha virt. eigenvalues --    1.63610   1.64253   1.64503   1.64623   1.64689
 Alpha virt. eigenvalues --    1.64779   1.65960   1.66152   1.67483   1.67638
 Alpha virt. eigenvalues --    1.68504   1.68790   1.70770   1.71429   1.72265
 Alpha virt. eigenvalues --    1.72399   1.72498   1.72860   1.74464   1.75067
 Alpha virt. eigenvalues --    1.75886   1.76813   1.77027   1.77668   1.78798
 Alpha virt. eigenvalues --    1.80064   1.80111   1.80682   1.80700   1.81642
 Alpha virt. eigenvalues --    1.82450   1.83370   1.84204   1.84410   1.85343
 Alpha virt. eigenvalues --    1.85979   1.87152   1.88439   1.89189   1.89395
 Alpha virt. eigenvalues --    1.90284   1.90456   1.90845   1.95729   1.96242
 Alpha virt. eigenvalues --    1.96494   1.96793   2.00810   2.01062   2.02614
 Alpha virt. eigenvalues --    2.02820   2.03741   2.04167   2.04343   2.04584
 Alpha virt. eigenvalues --    2.05148   2.06306   2.06859   2.13464   2.14757
 Alpha virt. eigenvalues --    2.18610   2.18658   2.20808   2.21270   2.21505
 Alpha virt. eigenvalues --    2.21832   2.23660   2.24386   2.25355   2.26286
 Alpha virt. eigenvalues --    2.26723   2.27981   2.28988   2.29079   2.34057
 Alpha virt. eigenvalues --    2.38061   2.38445   2.38592   2.38592   2.39109
 Alpha virt. eigenvalues --    2.45474   2.45898   2.45953   2.46007   2.54999
 Alpha virt. eigenvalues --    2.59134   2.59465   2.62596   2.62814   2.64800
 Alpha virt. eigenvalues --    2.64910   2.67509   2.69768   2.72942   2.73158
 Alpha virt. eigenvalues --    2.73695   2.75476   2.79622   2.81919   2.84189
 Alpha virt. eigenvalues --    2.86960   2.89879   2.90199   2.95082   2.98056
 Alpha virt. eigenvalues --    3.28529   3.39402   3.47698   3.50854   3.51047
          Condensed to atoms (all electrons):
               1          2          3          4          5          6
     1  C    4.964355   0.434505  -0.038174  -0.095863   0.010038   0.484125
     2  C    0.434505   4.948854   0.339654  -0.038174  -0.069882   0.024224
     3  C   -0.038174   0.339654   4.948854   0.434505   0.024224  -0.069882
     4  C   -0.095863  -0.038174   0.434505   4.964354   0.484125   0.010038
     5  C    0.010038  -0.069882   0.024224   0.484125   4.802261   0.431738
     6  C    0.484125   0.024224  -0.069882   0.010038   0.431738   4.802260
     7  H    0.394389  -0.036798   0.013433  -0.000462   0.009480  -0.054883
     8  H   -0.000462   0.013433  -0.036798   0.394389  -0.054883   0.009480
     9  H    0.008922   0.000994   0.007983  -0.038789   0.390660  -0.051356
    10  H   -0.038789   0.007983   0.000994   0.008922  -0.051356   0.390660
    11  C   -0.127030   0.406965  -0.050002   0.019517  -0.001203   0.011220
    12  C    0.009451   0.028620  -0.043487   0.000541   0.000121  -0.000943
    13  C    0.000541  -0.043487   0.028620   0.009451  -0.000943   0.000121
    14  C    0.019517  -0.050002   0.406965  -0.127030   0.011220  -0.001203
    15  H   -0.019870  -0.039878   0.011924  -0.000202  -0.000045   0.000887
    16  H   -0.000202   0.011924  -0.039878  -0.019871   0.000887  -0.000045
    17  C   -0.000649   0.009993   0.000575   0.000045   0.000001   0.000007
    18  C    0.000006  -0.000970   0.000049   0.000001   0.000000   0.000000
    19  C    0.000001   0.000049  -0.000970   0.000006   0.000000   0.000000
    20  C    0.000045   0.000575   0.009993  -0.000649   0.000007   0.000001
    21  H    0.000004   0.001675  -0.000030  -0.000001   0.000000  -0.000001
    22  H   -0.000001  -0.000030   0.001675   0.000004  -0.000001   0.000000
    23  C    0.000000   0.000005   0.000002   0.000000   0.000000   0.000000
    24  C    0.000000   0.000002   0.000005   0.000000   0.000000   0.000000
    25  H    0.000000  -0.000001   0.000000   0.000000   0.000000   0.000000
    26  H    0.000000   0.000000  -0.000001   0.000000   0.000000   0.000000
    27  C    0.000000   0.000000   0.000000   0.000000   0.000000   0.000000
    28  C    0.000000   0.000000   0.000000   0.000000   0.000000   0.000000
    29  C    0.000000   0.000000   0.000000   0.000000   0.000000   0.000000
    30  C    0.000000   0.000000   0.000000   0.000000   0.000000   0.000000
    31  H    0.000000   0.000000   0.000000   0.000000   0.000000   0.000000
    32  H    0.000000   0.000000   0.000000   0.000000   0.000000   0.000000
    33  H    0.000000   0.000000   0.000000   0.000000   0.000000   0.000000
    34  H    0.000000   0.000000   0.000000   0.000000   0.000000   0.000000
    35  C    0.000000   0.000000   0.000000   0.000000   0.000000   0.000000
    36  C    0.000000   0.000000   0.000000   0.000000   0.000000   0.000000
               7          8          9         10         11         12
     1  C    0.394389  -0.000462   0.008922  -0.038789  -0.127030   0.009451
     2  C   -0.036798   0.013433   0.000994   0.007983   0.406965   0.028620
     3  C    0.013433  -0.036798   0.007983   0.000994  -0.050002  -0.043487
     4  C   -0.000462   0.394389  -0.038789   0.008922   0.019517   0.000541
     5  C    0.009480  -0.054883   0.390660  -0.051356  -0.001203   0.000121
     6  C   -0.054883   0.009480  -0.051356   0.390660   0.011220  -0.000943
     7  H    0.731732   0.000065  -0.000295  -0.014373  -0.023815   0.002071
     8  H    0.000065   0.731732  -0.014373  -0.000295  -0.000140  -0.000069
     9  H   -0.000295  -0.014373   0.717826  -0.015273   0.000058  -0.000002
    10  H   -0.014373  -0.000295  -0.015273   0.717826  -0.000458   0.000012
    11  C   -0.023815  -0.000140   0.000058  -0.000458   5.322105   0.380609
    12  C    0.002071  -0.000069  -0.000002   0.000012   0.380609   4.949092
    13  C   -0.000069   0.002071   0.000012  -0.000002  -0.041217   0.354469
    14  C   -0.000140  -0.023815  -0.000458   0.000058  -0.128491  -0.041217
    15  H    0.001944   0.000011   0.000000  -0.000018   0.382581  -0.032891
    16  H    0.000011   0.001944  -0.000018   0.000000  -0.000259   0.012081
    17  C   -0.000013  -0.000002   0.000000   0.000000  -0.128277   0.386548
    18  C   -0.000001   0.000000   0.000000   0.000000   0.009917   0.030881
    19  C    0.000000  -0.000001   0.000000   0.000000   0.000631  -0.046029
    20  C   -0.000002  -0.000013   0.000000   0.000000   0.019605  -0.040091
    21  H    0.000029   0.000000   0.000000   0.000000  -0.021019  -0.037795
    22  H    0.000000   0.000029   0.000000   0.000000  -0.000244   0.012004
    23  C    0.000000   0.000000   0.000000   0.000000  -0.000689   0.009917
    24  C    0.000000   0.000000   0.000000   0.000000   0.000043   0.000631
    25  H    0.000000   0.000000   0.000000   0.000000   0.000005   0.001767
    26  H    0.000000   0.000000   0.000000   0.000000  -0.000001  -0.000035
    27  C    0.000000   0.000000   0.000000   0.000000   0.000000   0.000006
    28  C    0.000000   0.000000   0.000000   0.000000   0.000000   0.000000
    29  C    0.000000   0.000000   0.000000   0.000000   0.000000   0.000000
    30  C    0.000000   0.000000   0.000000   0.000000   0.000000   0.000001
    31  H    0.000000   0.000000   0.000000   0.000000   0.000000  -0.000001
    32  H    0.000000   0.000000   0.000000   0.000000   0.000000   0.000000
    33  H    0.000000   0.000000   0.000000   0.000000   0.000000   0.000000
    34  H    0.000000   0.000000   0.000000   0.000000   0.000000   0.000000
    35  C    0.000000   0.000000   0.000000   0.000000   0.000002   0.000049
    36  C    0.000000   0.000000   0.000000   0.000000   0.000005  -0.000970
              13         14         15         16         17         18
     1  C    0.000541   0.019517  -0.019870  -0.000202  -0.000649   0.000006
     2  C   -0.043487  -0.050002  -0.039878   0.011924   0.009993  -0.000970
     3  C    0.028620   0.406965   0.011924  -0.039878   0.000575   0.000049
     4  C    0.009451  -0.127030  -0.000202  -0.019871   0.000045   0.000001
     5  C   -0.000943   0.011220  -0.000045   0.000887   0.000001   0.000000
     6  C    0.000121  -0.001203   0.000887  -0.000045   0.000007   0.000000
     7  H   -0.000069  -0.000140   0.001944   0.000011  -0.000013  -0.000001
     8  H    0.002071  -0.023815   0.000011   0.001944  -0.000002   0.000000
     9  H    0.000012  -0.000458   0.000000  -0.000018   0.000000   0.000000
    10  H   -0.000002   0.000058  -0.000018   0.000000   0.000000   0.000000
    11  C   -0.041217  -0.128491   0.382581  -0.000259  -0.128277   0.009917
    12  C    0.354469  -0.041217  -0.032891   0.012081   0.386548   0.030881
    13  C    4.949091   0.380609   0.012081  -0.032891  -0.040091  -0.046029
    14  C    0.380609   5.322102  -0.000259   0.382581   0.019605   0.000631
    15  H    0.012081  -0.000259   0.733891   0.000064  -0.021775   0.001767
    16  H   -0.032891   0.382581   0.000064   0.733891  -0.000262  -0.000035
    17  C   -0.040091   0.019605  -0.021775  -0.000262   5.327655   0.386548
    18  C   -0.046029   0.000631   0.001767  -0.000035   0.386548   4.949092
    19  C    0.030881   0.009917  -0.000035   0.001767  -0.040091   0.354469
    20  C    0.386549  -0.128277  -0.000262  -0.021775  -0.132086  -0.040091
    21  H    0.012004  -0.000244   0.001319   0.000009   0.385441  -0.037795
    22  H   -0.037795  -0.021019   0.000009   0.001319  -0.000251   0.012004
    23  C    0.000631   0.000043   0.000005  -0.000001  -0.128278   0.380609
    24  C    0.009917  -0.000689  -0.000001   0.000005   0.019605  -0.041217
    25  H   -0.000035  -0.000001   0.000028   0.000000  -0.021775  -0.032891
    26  H    0.001767   0.000005   0.000000   0.000028  -0.000262   0.012081
    27  C    0.000001   0.000000   0.000000   0.000000  -0.000649   0.009451
    28  C    0.000000   0.000000   0.000000   0.000000   0.000007  -0.000943
    29  C    0.000000   0.000000   0.000000   0.000000   0.000001   0.000121
    30  C    0.000006   0.000000   0.000000   0.000000   0.000045   0.000541
    31  H    0.000000   0.000000   0.000000   0.000000  -0.000013   0.002071
    32  H    0.000000   0.000000   0.000000   0.000000   0.000000   0.000012
    33  H    0.000000   0.000000   0.000000   0.000000   0.000000  -0.000002
    34  H   -0.000001   0.000000   0.000000   0.000000  -0.000002  -0.000069
    35  C   -0.000970   0.000005   0.000000  -0.000001   0.000575  -0.043487
    36  C    0.000049   0.000002  -0.000001   0.000000   0.009993   0.028620
              19         20         21         22         23         24
     1  C    0.000001   0.000045   0.000004  -0.000001   0.000000   0.000000
     2  C    0.000049   0.000575   0.001675  -0.000030   0.000005   0.000002
     3  C   -0.000970   0.009993  -0.000030   0.001675   0.000002   0.000005
     4  C    0.000006  -0.000649  -0.000001   0.000004   0.000000   0.000000
     5  C    0.000000   0.000007   0.000000  -0.000001   0.000000   0.000000
     6  C    0.000000   0.000001  -0.000001   0.000000   0.000000   0.000000
     7  H    0.000000  -0.000002   0.000029   0.000000   0.000000   0.000000
     8  H   -0.000001  -0.000013   0.000000   0.000029   0.000000   0.000000
     9  H    0.000000   0.000000   0.000000   0.000000   0.000000   0.000000
    10  H    0.000000   0.000000   0.000000   0.000000   0.000000   0.000000
    11  C    0.000631   0.019605  -0.021019  -0.000244  -0.000689   0.000043
    12  C   -0.046029  -0.040091  -0.037795   0.012004   0.009917   0.000631
    13  C    0.030881   0.386549   0.012004  -0.037795   0.000631   0.009917
    14  C    0.009917  -0.128277  -0.000244  -0.021019   0.000043  -0.000689
    15  H   -0.000035  -0.000262   0.001319   0.000009   0.000005  -0.000001
    16  H    0.001767  -0.021775   0.000009   0.001319  -0.000001   0.000005
    17  C   -0.040091  -0.132086   0.385441  -0.000251  -0.128278   0.019605
    18  C    0.354469  -0.040091  -0.037795   0.012004   0.380609  -0.041217
    19  C    4.949091   0.386549   0.012004  -0.037795  -0.041217   0.380609
    20  C    0.386549   5.327651  -0.000251   0.385441   0.019605  -0.128277
    21  H    0.012004  -0.000251   0.737155   0.000066  -0.021019  -0.000244
    22  H   -0.037795   0.385441   0.000066   0.737155  -0.000244  -0.021019
    23  C   -0.041217   0.019605  -0.021019  -0.000244   5.322105  -0.128491
    24  C    0.380609  -0.128277  -0.000244  -0.021019  -0.128491   5.322102
    25  H    0.012081  -0.000262   0.001319   0.000009   0.382581  -0.000259
    26  H   -0.032891  -0.021775   0.000009   0.001319  -0.000259   0.382581
    27  C    0.000541   0.000045   0.000004  -0.000001  -0.127030   0.019517
    28  C    0.000121   0.000001  -0.000001   0.000000   0.011220  -0.001203
    29  C   -0.000943   0.000007   0.000000  -0.000001  -0.001203   0.011220
    30  C    0.009451  -0.000649  -0.000001   0.000004   0.019517  -0.127030
    31  H   -0.000069  -0.000002   0.000029   0.000000  -0.023815  -0.000140
    32  H   -0.000002   0.000000   0.000000   0.000000  -0.000458   0.000058
    33  H    0.000012   0.000000   0.000000   0.000000   0.000058  -0.000458
    34  H    0.002071  -0.000013   0.000000   0.000029  -0.000140  -0.023815
    35  C    0.028620   0.009993  -0.000030   0.001675  -0.050002   0.406965
    36  C   -0.043487   0.000575   0.001675  -0.000030   0.406965  -0.050002
              25         26         27         28         29         30
     1  C    0.000000   0.000000   0.000000   0.000000   0.000000   0.000000
     2  C   -0.000001   0.000000   0.000000   0.000000   0.000000   0.000000
     3  C    0.000000  -0.000001   0.000000   0.000000   0.000000   0.000000
     4  C    0.000000   0.000000   0.000000   0.000000   0.000000   0.000000
     5  C    0.000000   0.000000   0.000000   0.000000   0.000000   0.000000
     6  C    0.000000   0.000000   0.000000   0.000000   0.000000   0.000000
     7  H    0.000000   0.000000   0.000000   0.000000   0.000000   0.000000
     8  H    0.000000   0.000000   0.000000   0.000000   0.000000   0.000000
     9  H    0.000000   0.000000   0.000000   0.000000   0.000000   0.000000
    10  H    0.000000   0.000000   0.000000   0.000000   0.000000   0.000000
    11  C    0.000005  -0.000001   0.000000   0.000000   0.000000   0.000000
    12  C    0.001767  -0.000035   0.000006   0.000000   0.000000   0.000001
    13  C   -0.000035   0.001767   0.000001   0.000000   0.000000   0.000006
    14  C   -0.000001   0.000005   0.000000   0.000000   0.000000   0.000000
    15  H    0.000028   0.000000   0.000000   0.000000   0.000000   0.000000
    16  H    0.000000   0.000028   0.000000   0.000000   0.000000   0.000000
    17  C   -0.021775  -0.000262  -0.000649   0.000007   0.000001   0.000045
    18  C   -0.032891   0.012081   0.009451  -0.000943   0.000121   0.000541
    19  C    0.012081  -0.032891   0.000541   0.000121  -0.000943   0.009451
    20  C   -0.000262  -0.021775   0.000045   0.000001   0.000007  -0.000649
    21  H    0.001319   0.000009   0.000004  -0.000001   0.000000  -0.000001
    22  H    0.000009   0.001319  -0.000001   0.000000  -0.000001   0.000004
    23  C    0.382581  -0.000259  -0.127030   0.011220  -0.001203   0.019517
    24  C   -0.000259   0.382581   0.019517  -0.001203   0.011220  -0.127030
    25  H    0.733891   0.000064  -0.019870   0.000887  -0.000045  -0.000202
    26  H    0.000064   0.733891  -0.000202  -0.000045   0.000887  -0.019871
    27  C   -0.019870  -0.000202   4.964355   0.484125   0.010038  -0.095863
    28  C    0.000887  -0.000045   0.484125   4.802260   0.431738   0.010038
    29  C   -0.000045   0.000887   0.010038   0.431738   4.802261   0.484125
    30  C   -0.000202  -0.019871  -0.095863   0.010038   0.484125   4.964354
    31  H    0.001944   0.000011   0.394389  -0.054883   0.009480  -0.000462
    32  H   -0.000018   0.000000  -0.038789   0.390660  -0.051356   0.008922
    33  H    0.000000  -0.000018   0.008922  -0.051356   0.390660  -0.038789
    34  H    0.000011   0.001944  -0.000462   0.009480  -0.054883   0.394389
    35  C    0.011924  -0.039878  -0.038174  -0.069882   0.024224   0.434505
    36  C   -0.039878   0.011924   0.434505   0.024224  -0.069882  -0.038174
              31         32         33         34         35         36
     1  C    0.000000   0.000000   0.000000   0.000000   0.000000   0.000000
     2  C    0.000000   0.000000   0.000000   0.000000   0.000000   0.000000
     3  C    0.000000   0.000000   0.000000   0.000000   0.000000   0.000000
     4  C    0.000000   0.000000   0.000000   0.000000   0.000000   0.000000
     5  C    0.000000   0.000000   0.000000   0.000000   0.000000   0.000000
     6  C    0.000000   0.000000   0.000000   0.000000   0.000000   0.000000
     7  H    0.000000   0.000000   0.000000   0.000000   0.000000   0.000000
     8  H    0.000000   0.000000   0.000000   0.000000   0.000000   0.000000
     9  H    0.000000   0.000000   0.000000   0.000000   0.000000   0.000000
    10  H    0.000000   0.000000   0.000000   0.000000   0.000000   0.000000
    11  C    0.000000   0.000000   0.000000   0.000000   0.000002   0.000005
    12  C   -0.000001   0.000000   0.000000   0.000000   0.000049  -0.000970
    13  C    0.000000   0.000000   0.000000  -0.000001  -0.000970   0.000049
    14  C    0.000000   0.000000   0.000000   0.000000   0.000005   0.000002
    15  H    0.000000   0.000000   0.000000   0.000000   0.000000  -0.000001
    16  H    0.000000   0.000000   0.000000   0.000000  -0.000001   0.000000
    17  C   -0.000013   0.000000   0.000000  -0.000002   0.000575   0.009993
    18  C    0.002071   0.000012  -0.000002  -0.000069  -0.043487   0.028620
    19  C   -0.000069  -0.000002   0.000012   0.002071   0.028620  -0.043487
    20  C   -0.000002   0.000000   0.000000  -0.000013   0.009993   0.000575
    21  H    0.000029   0.000000   0.000000   0.000000  -0.000030   0.001675
    22  H    0.000000   0.000000   0.000000   0.000029   0.001675  -0.000030
    23  C   -0.023815  -0.000458   0.000058  -0.000140  -0.050002   0.406965
    24  C   -0.000140   0.000058  -0.000458  -0.023815   0.406965  -0.050002
    25  H    0.001944  -0.000018   0.000000   0.000011   0.011924  -0.039878
    26  H    0.000011   0.000000  -0.000018   0.001944  -0.039878   0.011924
    27  C    0.394389  -0.038789   0.008922  -0.000462  -0.038174   0.434505
    28  C   -0.054883   0.390660  -0.051356   0.009480  -0.069882   0.024224
    29  C    0.009480  -0.051356   0.390660  -0.054883   0.024224  -0.069882
    30  C   -0.000462   0.008922  -0.038789   0.394389   0.434505  -0.038174
    31  H    0.731732  -0.014373  -0.000295   0.000065   0.013433  -0.036798
    32  H   -0.014373   0.717826  -0.015273  -0.000295   0.000994   0.007983
    33  H   -0.000295  -0.015273   0.717826  -0.014373   0.007983   0.000994
    34  H    0.000065  -0.000295  -0.014373   0.731732  -0.036798   0.013433
    35  C    0.013433   0.000994   0.007983  -0.036798   4.948854   0.339654
    36  C   -0.036798   0.007983   0.000994   0.013433   0.339654   4.948854
 Mulliken charges:
               1
     1  C   -0.004858
     2  C    0.049767
     3  C    0.049767
     4  C   -0.004857
     5  C    0.013550
     6  C    0.013550
     7  H   -0.022301
     8  H   -0.022301
     9  H   -0.005889
    10  H   -0.005889
    11  C   -0.030415
    12  C    0.064657
    13  C    0.064657
    14  C   -0.030412
    15  H   -0.031274
    16  H   -0.031274
    17  C   -0.032167
    18  C    0.064657
    19  C    0.064657
    20  C   -0.032164
    21  H   -0.034311
    22  H   -0.034311
    23  C   -0.030415
    24  C   -0.030412
    25  H   -0.031274
    26  H   -0.031274
    27  C   -0.004858
    28  C    0.013550
    29  C    0.013550
    30  C   -0.004857
    31  H   -0.022301
    32  H   -0.005889
    33  H   -0.005889
    34  H   -0.022301
    35  C    0.049766
    36  C    0.049767
 Sum of Mulliken charges =   0.00000
 Mulliken charges with hydrogens summed into heavy atoms:
               1
     1  C   -0.027159
     2  C    0.049767
     3  C    0.049767
     4  C   -0.027158
     5  C    0.007660
     6  C    0.007661
    11  C   -0.061689
    12  C    0.064657
    13  C    0.064657
    14  C   -0.061686
    17  C   -0.066478
    18  C    0.064657
    19  C    0.064657
    20  C   -0.066475
    23  C   -0.061689
    24  C   -0.061686
    27  C   -0.027159
    28  C    0.007661
    29  C    0.007660
    30  C   -0.027158
    35  C    0.049766
    36  C    0.049767
 Electronic spatial extent (au):  <R**2>=           9113.3805
 Charge=              0.0000 electrons
 Dipole moment (field-independent basis, Debye):
    X=              0.0000    Y=              0.0000    Z=              0.0000  Tot=              0.0000
 Quadrupole moment (field-independent basis, Debye-Ang):
   XX=           -109.7500   YY=           -110.4572   ZZ=           -134.2821
   XY=              0.0000   XZ=              0.0000   YZ=              0.0000
 Traceless Quadrupole moment (field-independent basis, Debye-Ang):
   XX=              8.4131   YY=              7.7059   ZZ=            -16.1190
   XY=              0.0000   XZ=              0.0000   YZ=              0.0000
 Octapole moment (field-independent basis, Debye-Ang**2):
  XXX=              0.0000  YYY=             -0.0001  ZZZ=              0.0000  XYY=              0.0000
  XXY=             -0.0002  XXZ=              0.0007  XZZ=              0.0000  YZZ=              0.0000
  YYZ=              0.0000  XYZ=              0.0000
 Hexadecapole moment (field-independent basis, Debye-Ang**3):
 XXXX=         -10267.4712 YYYY=          -1091.7044 ZZZZ=           -147.6949 XXXY=              0.0000
 XXXZ=              0.0006 YYYX=              0.0000 YYYZ=              0.0000 ZZZX=              0.0000
 ZZZY=              0.0000 XXYY=          -1925.3750 XXZZ=          -2126.1600 YYZZ=           -245.0188
 XXYZ=             -0.0004 YYXZ=              0.0000 ZZXY=              0.0000
 N-N= 1.508408647073D+03 E-N=-4.978938295219D+03  KE= 8.414593231797D+02
 Calling FoFJK, ICntrl=      2127 FMM=F ISym2X=0 I1Cent= 0 IOpClX= 0 NMat=1 NMatS=1 NMatT=0.
 ***** Axes restored to original set *****
 -------------------------------------------------------------------
 Center     Atomic                   Forces (Hartrees/Bohr)
 Number     Number              X              Y              Z
 -------------------------------------------------------------------
      1        6          -0.025201503    0.041857190   -0.016854808
      2        6          -0.001256380   -0.036144644    0.023450056
      3        6           0.035588243    0.011811457   -0.021258233
      4        6          -0.049073159    0.010786235    0.012112147
      5        6           0.040470702   -0.008959951   -0.009948022
      6        6           0.020847900   -0.034500497    0.013863441
      7        1          -0.007325351   -0.011254293    0.009981382
      8        1           0.009036174    0.010041613   -0.009871983
      9        1          -0.007162426    0.013742965   -0.005963545
     10        1          -0.015784278    0.002520871    0.004498319
     11        6           0.003015105    0.022841142   -0.015677175
     12        6          -0.017455685   -0.031076346    0.026490222
     13        6           0.025769337    0.025184574   -0.025959431
     14        6          -0.021834387   -0.009502593    0.014475673
     15        1          -0.008356239   -0.010789239    0.010084147
     16        1           0.008269351    0.010850390   -0.010089582
     17        6           0.012056793    0.015692972   -0.014629791
     18        6          -0.025769044   -0.025184349    0.025959144
     19        6           0.017455929    0.031076813   -0.026490324
     20        6          -0.012056893   -0.015693069    0.014629712
     21        1          -0.008276178   -0.010772148    0.010042425
     22        1           0.008275966    0.010771876   -0.010042145
     23        6           0.021834409    0.009502617   -0.014475503
     24        6          -0.003015131   -0.022841235    0.015677202
     25        1          -0.008269520   -0.010850601    0.010089782
     26        1           0.008356048    0.010788976   -0.010084057
     27        6           0.049073115   -0.010786357   -0.012112371
     28        6          -0.040470564    0.008960060    0.009948253
     29        6          -0.020847737    0.034500879   -0.013863064
     30        6           0.025201307   -0.041857453    0.016854366
     31        1          -0.009036245   -0.010041712    0.009872093
     32        1           0.007162380   -0.013743037    0.005963444
     33        1           0.015784238   -0.002520941   -0.004498411
     34        1           0.007325292    0.011254232   -0.009981237
     35        6           0.001256468    0.036145060   -0.023450074
     36        6          -0.035588036   -0.011811455    0.021257950
 -------------------------------------------------------------------
 Cartesian Forces:  Max     0.049073159 RMS     0.019611196

 GradGradGradGradGradGradGradGradGradGradGradGradGradGradGradGradGradGrad
 Berny optimization.
 FormGI is forming the generalized inverse of G from B-inverse, IUseBI=4.
 Internal  Forces:  Max     0.038863304 RMS     0.008677084
 Search for a local minimum.
 Step number   1 out of a maximum of  216
 All quantities printed in internal units (Hartrees-Bohrs-Radians)
 Mixed Optimization -- RFO/linear search
 Second derivative matrix not updated -- first step.
 ITU=  0
     Eigenvalues ---    0.02070   0.02070   0.02070   0.02070   0.02070
     Eigenvalues ---    0.02070   0.02070   0.02070   0.02070   0.02070
     Eigenvalues ---    0.02070   0.02070   0.02070   0.02070   0.02070
     Eigenvalues ---    0.02070   0.02070   0.02070   0.02070   0.02070
     Eigenvalues ---    0.02070   0.02070   0.02070   0.02070   0.02070
     Eigenvalues ---    0.02070   0.02070   0.02070   0.02070   0.02070
     Eigenvalues ---    0.02070   0.02070   0.02070   0.16000   0.16000
     Eigenvalues ---    0.16000   0.16000   0.16000   0.16000   0.16000
     Eigenvalues ---    0.16000   0.16000   0.16000   0.16000   0.16000
     Eigenvalues ---    0.16000   0.16000   0.22000   0.22000   0.22497
     Eigenvalues ---    0.22523   0.22962   0.23247   0.23436   0.23756
     Eigenvalues ---    0.23932   0.24189   0.24568   0.24593   0.25000
     Eigenvalues ---    0.25000   0.25000   0.37230   0.37230   0.37230
     Eigenvalues ---    0.37230   0.37230   0.37230   0.37230   0.37230
     Eigenvalues ---    0.37230   0.37230   0.37230   0.37230   0.37230
     Eigenvalues ---    0.37230   0.37479   0.39087   0.40839   0.41078
     Eigenvalues ---    0.41214   0.41402   0.41706   0.41912   0.43055
     Eigenvalues ---    0.44133   0.45389   0.45389   0.45389   0.45389
     Eigenvalues ---    0.45389   0.45389   0.45389   0.45389   0.45389
     Eigenvalues ---    0.45389   0.45389   0.45389   0.45389   0.45389
     Eigenvalues ---    0.45389   0.45389
 RFO step:  Lambda=-3.55960794D-02 EMin= 2.07023607D-02
 Linear search not attempted -- first point.
 Iteration  1 RMS(Cart)=  0.03595582 RMS(Int)=  0.00014470
 Iteration  2 RMS(Cart)=  0.00017037 RMS(Int)=  0.00002294
 Iteration  3 RMS(Cart)=  0.00000005 RMS(Int)=  0.00002294
 Variable       Old X    -DE/DX   Delta X   Delta X   Delta X     New X
                                 (Linear)    (Quad)   (Total)
    R1        2.64826   0.01973   0.00000   0.04205   0.04207   2.69033
    R2        2.64826  -0.02579   0.00000  -0.05442  -0.05444   2.59382
    R3        2.02201   0.01670   0.00000   0.04094   0.04094   2.06295
    R4        2.64826   0.03372   0.00000   0.07200   0.07200   2.72026
    R5        2.64826  -0.00357   0.00000  -0.00749  -0.00751   2.64075
    R6        2.64826   0.01973   0.00000   0.04205   0.04207   2.69033
    R7        2.64826  -0.00357   0.00000  -0.00749  -0.00751   2.64075
    R8        2.64826  -0.02579   0.00000  -0.05442  -0.05444   2.59382
    R9        2.02201   0.01670   0.00000   0.04094   0.04094   2.06294
   R10        2.64826   0.01804   0.00000   0.03338   0.03334   2.68160
   R11        2.02201   0.01660   0.00000   0.04068   0.04068   2.06269
   R12        2.02201   0.01660   0.00000   0.04068   0.04068   2.06269
   R13        2.64826   0.00928   0.00000   0.01914   0.01916   2.66742
   R14        2.02201   0.01697   0.00000   0.04160   0.04160   2.06361
   R15        2.64826   0.03886   0.00000   0.07977   0.07981   2.72807
   R16        2.64826   0.00363   0.00000   0.00741   0.00741   2.65567
   R17        2.64826   0.00928   0.00000   0.01914   0.01916   2.66742
   R18        2.64826   0.00363   0.00000   0.00741   0.00741   2.65567
   R19        2.02201   0.01697   0.00000   0.04160   0.04160   2.06361
   R20        2.64826   0.00363   0.00000   0.00741   0.00741   2.65567
   R21        2.02201   0.01689   0.00000   0.04142   0.04142   2.06342
   R22        2.64826   0.03886   0.00000   0.07977   0.07981   2.72807
   R23        2.64826   0.00928   0.00000   0.01914   0.01916   2.66742
   R24        2.64826   0.00363   0.00000   0.00741   0.00741   2.65567
   R25        2.64826   0.00928   0.00000   0.01914   0.01916   2.66742
   R26        2.02201   0.01689   0.00000   0.04141   0.04141   2.06342
   R27        2.02201   0.01697   0.00000   0.04160   0.04160   2.06361
   R28        2.64826  -0.00357   0.00000  -0.00749  -0.00751   2.64075
   R29        2.02201   0.01697   0.00000   0.04160   0.04160   2.06361
   R30        2.64826  -0.00357   0.00000  -0.00749  -0.00751   2.64075
   R31        2.64826  -0.02579   0.00000  -0.05442  -0.05444   2.59382
   R32        2.02201   0.01670   0.00000   0.04094   0.04094   2.06295
   R33        2.64826   0.01973   0.00000   0.04205   0.04207   2.69033
   R34        2.64826   0.01804   0.00000   0.03338   0.03334   2.68160
   R35        2.02201   0.01660   0.00000   0.04068   0.04068   2.06269
   R36        2.64826  -0.02579   0.00000  -0.05442  -0.05444   2.59382
   R37        2.02201   0.01660   0.00000   0.04068   0.04068   2.06269
   R38        2.02201   0.01670   0.00000   0.04094   0.04094   2.06294
   R39        2.64826   0.01973   0.00000   0.04205   0.04207   2.69033
   R40        2.64826   0.03372   0.00000   0.07200   0.07200   2.72026
    A1        2.09440   0.00232   0.00000   0.00827   0.00826   2.10265
    A2        2.09440  -0.00222   0.00000  -0.00956  -0.00956   2.08484
    A3        2.09440  -0.00010   0.00000   0.00129   0.00130   2.09569
    A4        2.09440  -0.00783   0.00000  -0.01886  -0.01879   2.07561
    A5        2.09440   0.00826   0.00000   0.02487   0.02487   2.11927
    A6        2.09440  -0.00043   0.00000  -0.00601  -0.00609   2.08831
    A7        2.09440  -0.00783   0.00000  -0.01886  -0.01879   2.07561
    A8        2.09440  -0.00043   0.00000  -0.00601  -0.00609   2.08831
    A9        2.09440   0.00826   0.00000   0.02487   0.02487   2.11927
   A10        2.09440   0.00232   0.00000   0.00827   0.00826   2.10265
   A11        2.09440  -0.00222   0.00000  -0.00956  -0.00956   2.08484
   A12        2.09440  -0.00010   0.00000   0.00129   0.00130   2.09569
   A13        2.09440   0.00551   0.00000   0.01059   0.01053   2.10492
   A14        2.09440  -0.00334   0.00000  -0.00829  -0.00826   2.08614
[...]
 01379,0.00010465,-0.00201129,-0.00107697,0.00063962,0.00011365,-0.0002
 2609,-0.00039487,0.00021096,0.00015581,-0.00000599,0.00025709,0.000109
 79,0.08700803,0.11388319,-0.14169373,0.00194047,0.00653517,-0.00029794
 ,0.00321252,0.00226435,0.00614576,-0.00045983,-0.00038275,-0.00026657,
 -0.09581893,-0.12602299,0.14153291,0.00003078,-0.00000303,-0.00001236,
 -0.00003541,0.00004152,-0.00002453,-0.00004771,0.00000352,0.00001808,0
 .00001261,-0.00002411,0.00001214,-0.00002774,-0.00000603,0.00001380,-0
 .00000818,0.00002815,-0.00001342,-0.00000241,-0.00000364,0.00000324,0.
 00000274,0.00000251,-0.00000240,-0.00000321,0.00000312,-0.00000095,-0.
 00000406,0.00000256,0.00000050,0.00007101,-0.00000417,-0.00001582,-0.0
 0009711,0.00012230,0.00003229,-0.00010224,0.00001600,0.00001987,0.0000
 3749,-0.00005636,0.00001450,-0.00000255,-0.00000353,0.00000636,0.00000
 275,0.00000390,-0.00000311,0.00013953,0.00004608,-0.00012060,-0.000692
 39,-0.00006409,-0.00016034,-0.00017581,0.00004739,0.00008406,0.0001183
 1,-0.00009695,0.00004012,-0.00000593,-0.00001583,0.00000018,0.00000051
 ,0.00000868,-0.00000634,0.00030058,0.00114945,-0.00074568,0.00030929,-
 0.00027736,-0.00017128,0.00001248,0.00000311,0.00012431,-0.00000807,0.
 00006822,-0.00001674,-0.00856386,0.02507322,-0.01100773,-0.11522220,0.
 11102499,-0.04005645,0.00947842,-0.01302443,0.00565020,-0.00073782,-0.
 00156840,0.00274852,0.00053020,-0.00122853,-0.00158923,0.11846776,-0.0
 0001103,-0.00001346,0.00000889,0.00000988,0.00000232,-0.00002475,-0.00
 001344,-0.00000058,0.00000866,0.00000846,0.00001057,-0.00000719,0.0000
 0317,-0.00000229,-0.00000101,0.00001613,-0.00000200,-0.00000282,0.0000
 0294,0.00000373,-0.00000350,-0.00000294,-0.00000181,0.00000269,0.00000
 312,-0.00000419,0.00000112,0.00000474,-0.00000147,0.,0.00000486,-0.000
 01616,0.00002314,0.00004823,0.00007296,0.00005414,-0.00004094,-0.00000
 898,0.00000596,0.00001779,0.00000439,-0.00002088,0.00000643,0.00000613
 ,-0.00000124,-0.00000269,-0.00000122,0.00000252,0.00001047,-0.00007410
 ,-0.00001844,-0.00011698,-0.00023691,-0.00057472,-0.00008212,0.0000389
 8,0.00008297,0.00005767,0.00002275,0.00000313,0.00000479,-0.00000256,-
 0.00002023,-0.00000465,0.00000054,0.00000042,0.00010557,-0.00022817,0.
 00026984,0.00002466,-0.00017963,-0.00027020,0.00007775,0.00010106,0.00
 012128,-0.00000688,0.00003093,0.00002161,-0.00006806,-0.00110729,0.003
 38117,0.11216676,-0.23906541,0.08544754,0.01139889,-0.01092780,0.00424
 457,-0.00245228,0.00007005,0.00331479,-0.00099132,-0.00090776,-0.00259
 917,-0.12144833,0.24880955,-0.00000728,0.00000580,-0.00000705,-0.00000
 443,-0.00003698,-0.00000542,0.00002886,0.00000210,-0.00000762,-0.00000
 855,0.00000540,0.00000427,0.00000795,0.00000254,-0.00000664,-0.0000057
 8,-0.00000746,0.00001035,-0.00000094,-0.00000096,0.00000098,0.00000106
 ,0.00000059,-0.00000014,-0.00000095,0.00000112,-0.00000088,-0.00000089
 ,0.00000085,0.00000123,-0.00002156,0.00002663,0.00001462,0.00007936,0.
 00002552,0.00014063,0.00005606,-0.00001605,-0.00003597,-0.00003261,0.0
 0000778,-0.00000999,0.00000003,0.00000261,0.00000643,0.00000107,-0.000
 00003,0.00000070,-0.00009797,-0.00003221,-0.00003844,-0.00012674,-0.00
 059516,-0.00078553,0.00016634,0.00003292,0.00003441,-0.00005811,0.0000
 6288,0.00004526,-0.00001292,-0.00001226,-0.00001870,0.00000213,-0.0000
 0473,0.00000056,-0.00008246,-0.00013359,0.00037750,-0.00036317,-0.0001
 5348,-0.00035204,0.00007688,0.00015012,0.00021415,0.00003097,-0.000007
 41,0.00005350,0.00496562,-0.00633504,0.00627899,-0.04078187,0.08588879
 ,-0.07515488,-0.00986700,0.01368332,-0.00219374,0.00331009,0.00297320,
 0.00062747,-0.00173994,-0.00250750,-0.00333618,0.04089856,-0.09549212,
 0.06949990,0.00001581,0.00000941,-0.00001039,-0.00000219,0.00000005,0.
 00000269,-0.00001352,0.00001637,-0.00001702,-0.00000605,-0.00002195,0.
 00001389,-0.00001594,0.00001383,-0.00000132,-0.00000369,0.00001030,-0.
 00000588,-0.00000147,-0.00000418,0.00000347,0.00000369,0.00000474,-0.0
 0000444,-0.00000406,0.00000474,-0.00000089,-0.00000621,0.00000223,0.00
 000078,0.00002027,0.00001269,-0.00002272,-0.00000859,-0.00001318,0.000
 00222,-0.00000064,0.00007682,0.00002391,-0.00001181,-0.00001968,0.0000
 2604,-0.00000141,-0.00000393,0.00000346,0.00000438,0.00000848,-0.00000
 395,0.00003951,0.00003431,-0.00001282,0.00002430,-0.00002280,0.0000513
 2,-0.00014858,0.00004421,-0.00043931,-0.00007038,-0.00005175,0.0000226
 8,-0.00000048,-0.00000494,0.00000270,0.00000260,0.00000732,-0.00001783
 ,-0.00003152,-0.00007636,-0.00016728,-0.00058785,-0.00015777,0.0004282
 0,0.00000726,-0.00000234,0.00002216,0.00005138,0.00008928,0.00005453,0
 .00089364,-0.00196871,0.00237235,-0.00972047,0.00570821,0.00116822,-0.
 30931676,0.05463585,0.07078064,-0.00949611,-0.00034438,0.00550146,-0.0
 0057710,0.00027260,0.00012298,0.00038663,-0.00038576,-0.00069091,0.325
 92165,-0.00002316,0.00000762,0.00000691,0.00001701,-0.00004257,0.00002
 357,0.00004801,-0.00001788,-0.00002665,-0.00001395,0.00002051,-0.00001
 157,0.00002585,0.00000515,-0.00001112,0.00000110,-0.00002448,0.0000138
 9,0.00000126,0.00000208,-0.00000140,-0.00000183,-0.00000189,0.00000191
 ,0.00000256,-0.00000147,0.00000085,0.00000223,-0.00000142,-0.00000030,
 -0.00006146,0.00002027,-0.00000034,0.00004376,-0.00009538,0.00002812,0
 .00015090,-0.00001604,0.00007101,-0.00002872,0.00006024,-0.00001243,0.
 00000266,0.00000261,-0.00000199,-0.00000148,-0.00000026,0.00000588,-0.
 00012031,0.00009544,0.00002572,0.00010671,-0.00014564,0.00012729,0.000
 09710,-0.00073859,-0.00033871,-0.00001613,0.00011954,-0.00013119,0.000
 00838,0.00000145,-0.00000519,-0.00001330,-0.00001043,-0.00000824,-0.00
 037838,0.00013478,-0.00031419,0.00088611,0.00059143,-0.00055254,0.0000
 7276,0.00001679,-0.00000019,0.00001464,0.00006518,0.00016847,-0.001084
 82,-0.00143501,0.00374255,-0.01871511,0.00678365,0.00462970,0.05349409
 ,-0.06000835,-0.00564030,0.02479689,-0.00024727,-0.00677466,-0.0009190
 4,0.00021428,0.00033928,0.00008038,0.00010847,-0.00139312,-0.05995763,
 0.05742817,0.00001031,-0.00000568,0.00000403,-0.00000808,0.00003012,-0
 .00001115,-0.00003712,-0.00001443,-0.00000712,0.00000881,-0.00000848,-
 0.00000420,-0.00000896,-0.00000647,0.00001095,-0.00000003,0.00001033,-
 0.00000851,0.00000002,0.00000071,0.00000019,-0.00000026,-0.00000063,0.
 00000050,0.00000050,0.,0.00000123,0.00000078,-0.00000030,-0.00000065,0
 .00002439,-0.00002900,-0.00000866,-0.00003396,0.00005013,-0.00004323,-
 0.00002316,0.00009964,0.00013316,0.00003178,-0.00001592,0.00002104,-0.
 00000072,0.00000056,0.00000103,0.00000238,0.00000203,0.00000589,0.0000
 8542,-0.00003403,0.00005136,-0.00003096,0.00017734,0.00001891,-0.00047
 291,-0.00031827,-0.00082766,0.00000006,-0.00011743,-0.00002217,-0.0000
 0577,-0.00000004,0.00000063,-0.00000473,-0.00001621,-0.00001936,0.0000
 2461,-0.00043091,-0.00032564,-0.00023503,-0.00014912,0.00044633,-0.000
 02555,0.00002884,0.00005231,0.00010195,0.00013962,0.00021114,0.0018107
 8,0.00408414,0.00050107,0.01668542,-0.00480904,-0.00070630,0.07150605,
 -0.00608155,-0.06011739,-0.01047188,0.00294155,0.00635122,0.00088008,-
 0.00012125,-0.00007383,-0.00098707,-0.00121297,-0.00088321,-0.07834268
 ,0.00233684,0.05342740,0.00001602,0.00000553,-0.00001007,-0.00003120,0
 .00001207,0.00000365,0.00000588,-0.00000714,0.00000164,-0.00000151,-0.
 00000708,0.00000599,-0.00000287,-0.00001199,0.00000833,-0.00002280,0.0
 0000857,0.00000326,-0.00000225,-0.00000192,0.00000238,0.00000214,0.000
 00207,-0.00000156,-0.00000241,0.00000294,-0.00000094,-0.00000147,0.000
 00126,0.00000002,0.00002014,0.00000608,-0.00001246,-0.00004619,0.00002
 686,-0.00000318,0.00001847,0.00001604,-0.00001432,-0.00000786,-0.00002
 655,0.00001354,-0.00000262,-0.00000258,0.00000327,0.00000024,0.0000060
 0,-0.00000232,0.00002340,0.00006037,-0.00004147,0.00013127,-0.00010029
 ,-0.00005544,0.00024246,0.00024811,-0.00030281,-0.00004854,-0.00005164
 ,0.00008585,0.00002232,-0.00000070,0.00000151,-0.00001841,0.00003160,-
 0.00001027,-0.00019215,-0.00132067,0.00094940,0.00140935,-0.00196107,-
 0.00019314,-0.00042728,0.00010627,0.00020227,0.00022213,0.00057067,-0.
 00039538,-0.00058032,0.00054683,-0.00038883,0.00016403,0.00366705,0.00
 101767,0.00963220,0.01050225,-0.00861573,-0.11950394,-0.08561766,0.086
 77871,-0.00005708,-0.00029690,-0.00027262,0.00033703,0.00054355,-0.000
 40245,0.00022842,-0.00131798,-0.00141577,0.12172564,0.00002105,0.00000
 198,-0.00000999,-0.00001351,0.00002430,-0.00001143,-0.00003703,0.00001
 040,0.00000666,0.00000647,-0.00002316,0.00001370,-0.00002276,-0.000000
 75,0.00000862,-0.00000760,0.00001939,-0.00000956,-0.00000192,-0.000003
 01,0.00000313,0.00000348,0.00000374,-0.00000276,-0.00000364,0.00000373
 ,-0.00000096,-0.00000418,0.00000208,0.00000071,0.00003563,-0.00000353,
 -0.00001286,-0.00003507,0.00004798,-0.00002346,-0.00008653,0.00004514,
 0.00000971,0.00001818,-0.00005282,0.00001606,-0.00000295,-0.00000330,0
 .00000426,0.00000455,0.00000546,-0.00000263,0.00008775,-0.00001412,-0.
 00001520,-0.00007915,0.00012784,-0.00016313,-0.00040328,0.00012832,-0.
 00001029,0.00007186,-0.00009402,0.00008833,0.00000164,-0.00000838,0.00
 002063,0.00001616,0.00000294,-0.00000370,0.00036631,0.00009163,-0.0001
 4050,0.00049811,0.00016376,-0.00176698,0.00012238,0.00006066,0.0000862
 2,-0.00064030,0.00019403,0.00021138,0.00034087,-0.00020069,-0.00044100
 ,0.00482363,-0.00050638,0.00406506,-0.01449435,-0.01049680,0.01519578,
 -0.08451909,-0.16384490,0.11407119,-0.00031623,-0.00033128,-0.00046187
 ,-0.00064809,-0.00062902,0.00077035,-0.00108077,-0.00062937,-0.0027414
 8,0.09001983,0.16935611,-0.00001993,-0.00000399,0.00000930,0.00001991,
 -0.00002131,0.00000394,0.00002062,-0.00000489,-0.00000650,-0.00000262,
 0.00001894,-0.00000868,0.00001517,0.00000446,-0.00000973,0.00001353,-0
 .00001581,0.00000453,0.00000238,0.00000313,-0.00000216,-0.00000246,-0.
 00000222,0.00000386,0.00000324,-0.00000350,0.00000098,0.00000347,-0.00
 000140,0.00000019,-0.00003123,-0.00000144,0.00001088,0.00003616,-0.000
 04739,0.00000586,0.00005085,-0.00002993,0.00000716,-0.00001488,0.00003
 335,-0.00003192,0.00000351,0.00000411,-0.00000236,-0.00000141,-0.00000
 319,0.00000666,-0.00005887,-0.00000462,0.00004102,-0.00006887,-0.00015
 496,-0.00005199,0.00011105,-0.00026203,-0.00000962,0.00000738,0.000136
 05,-0.00000059,0.00000002,0.00002153,0.00001139,-0.00000047,-0.0000096
 6,0.00001327,-0.00012241,0.00051146,-0.00018434,-0.00175557,-0.0008165
 9,-0.00111711,0.00019204,0.00009245,0.00013786,0.00037401,-0.00025662,
 0.00015575,-0.00025798,-0.00052059,-0.00025700,0.00028285,0.00451204,0
 .00584992,0.00726569,0.00553549,-0.00172081,0.08608074,0.11449574,-0.1
 4172456,-0.00026034,-0.00046934,-0.00085179,0.00035465,0.00030983,-0.0
 0014465,-0.00156648,-0.00264980,-0.00331280,-0.09479308,-0.12686448,0.
 14167112,0.00043869,-0.00022100,-0.00003944,-0.00019895,0.00152816,-0.
 00092030,-0.00259253,0.00009242,0.00093608,0.00085220,-0.00073075,0.00
 019445,-0.00088821,-0.00049103,0.00065408,0.00000365,0.00073986,-0.000
 46297,-0.00003120,-0.00001351,0.00001991,0.00002389,-0.00000181,-0.000
 00872,-0.00003541,0.00000988,-0.00000443,-0.00000219,0.00001701,-0.000
 00808,0.00092803,-0.00070514,0.00011775,-0.00016804,0.00346013,-0.0018
 8629,-0.00739317,0.00296885,0.00099118,0.00243371,-0.00295262,0.000648
 16,-0.00006562,-0.00003287,0.00004107,0.00005812,-0.00000038,-0.000018
 87,0.00173076,-0.00157702,0.00001139,0.00073601,0.00618541,-0.00623955
 ,-0.03866296,0.03765061,-0.00748174,0.00533880,-0.00926501,0.00624004,
 0.00007781,-0.00008350,-0.00005887,0.00017778,0.00015033,-0.00022041,-
 0.01247542,-0.02204369,0.02152937,-0.14474361,0.10415546,-0.03393720,-
 0.00366773,0.00225319,0.00258385,0.00872700,-0.01393527,0.00700644,0.0
 3536156,-0.00966462,-0.00522029,-0.02910696,-0.01255710,0.01627247,-0.
 02008421,0.05148742,-0.02240688,-0.26402145,0.01563419,0.06622791,-0.0
 0090145,0.00430896,-0.00079197,-0.00071830,-0.00054489,0.00039067,0.00
 203566,0.00261245,0.00143474,-0.00923775,0.00397778,0.00222899,0.63344
 939,-0.00211322,0.00128773,-0.00001841,0.00152816,-0.00561935,0.002936
 44,0.00717427,-0.00023920,-0.00263234,-0.00242024,0.00204555,-0.000266
 44,0.00268071,0.00110252,-0.00173838,-0.00031554,-0.00254676,0.0017539
 9,0.00001207,0.00002430,-0.00002131,-0.00003169,-0.00000622,0.00001516
 ,0.00004152,0.00000232,-0.00003698,0.00000005,-0.00004257,0.00003012,-
 0.00601593,0.00366132,0.00004542,0.00566835,-0.01132448,0.00541061,0.0
 1735198,-0.00379784,-0.00425974,-0.00758302,0.00624845,-0.00151154,0.0
 0000807,0.00006457,-0.00005265,-0.00009246,-0.00000118,0.00004199,-0.0
 1457721,0.00786958,0.00010484,0.01373335,-0.02752296,0.00884960,0.0538
 0947,-0.01904115,-0.00623593,-0.01944293,0.02082393,-0.00174311,-0.000
 15107,0.00018913,-0.00019635,-0.00049844,0.00015415,0.00000231,-0.0388
 7084,0.02911495,0.00096750,0.08096455,-0.27154052,0.10226747,0.0037273
 3,0.00226433,0.00139190,0.00896754,-0.01094408,0.00599542,-0.01226278,
 -0.01625958,0.01885950,0.00621647,0.00514281,-0.01052690,0.03220424,-0
 .02058472,0.00481405,0.02543346,-0.08947244,0.00448021,0.00290349,-0.0
 0151896,0.00246894,-0.00013995,0.00020704,-0.00046071,0.00338115,-0.00
 144659,0.00599313,-0.01904599,0.00519914,0.00600744,-0.12344728,0.5645
 3133,0.00116278,-0.00074969,0.00000027,-0.00092030,0.00293644,-0.00157
 798,-0.00356333,0.00010455,0.00129224,0.00126785,-0.00091937,0.0002481
 4,-0.00136107,-0.00051262,0.00084869,0.00020757,0.00134612,-0.00091346
 ,0.00000365,-0.00001143,0.00000394,0.00001027,0.00000361,-0.00000790,-
 0.00002453,-0.00002475,-0.00000542,0.00000269,0.00002357,-0.00001115,0
 .00349192,-0.00200701,-0.00000090,-0.00328927,0.00626401,-0.00206912,-
 0.00814705,0.00129882,0.00237567,0.00359005,-0.00330103,-0.00003336,0.
 00001506,-0.00003682,0.00000419,0.00003963,0.00000640,-0.00001071,0.00
 827098,-0.00491927,-0.00090339,-0.01103508,0.01176662,-0.00845162,-0.0
 1774816,0.00000889,0.01072820,0.01270652,-0.00567651,0.00494961,-0.000
 01594,-0.00022246,-0.00006430,0.00019178,-0.00024842,-0.00006170,0.032
 22039,-0.00553559,-0.00194149,-0.01920300,0.09330501,-0.11318710,0.001
 64726,0.00196160,0.00483946,-0.00754471,0.01484654,-0.00256973,-0.0035
 6956,0.01785540,-0.00399961,0.00434481,-0.00327158,-0.00724523,-0.0101
 5543,-0.00263821,0.01218232,0.06000201,0.00826728,-0.09539143,0.000100
 98,0.00192578,0.00287060,0.00013339,-0.00030421,-0.00046149,0.00094636
 ,0.00629021,0.00568081,0.01685700,-0.00289042,-0.00160888,-0.10487482,
 -0.20985902,0.33299625,0.00301120,-0.00178030,0.00002689,-0.00259253,0
 .00717428,-0.00356333,-0.00647030,-0.00033072,0.00268438,0.00199946,-0
 .00165060,0.00026567,-0.00264643,-0.00110104,0.00173080,0.00037182,0.0
 0305420,-0.00208532,0.00000588,-0.00003703,0.00002062,0.00002191,0.000
 02781,-0.00002687,-0.00004771,-0.00001344,0.00002886,-0.00001351,0.000
 04801,-0.00003712,0.00954361,-0.00547560,-0.00049661,-0.01036705,0.016
 47051,-0.00643772,-0.01394970,0.00158337,0.00463222,0.00567046,-0.0046
 1024,0.00076605,0.00003046,-0.00010066,0.00005553,0.00006650,0.0000472
 3,-0.00006088,0.02901648,-0.01242472,-0.00090304,-0.04933537,0.0506461
 1,-0.01161383,-0.03261772,0.00384708,0.00813613,0.01274206,-0.01131338
 ,0.00194184,0.00028130,-0.00046776,0.00013228,0.00027901,-0.00009143,-
 0.00013159,-0.33094127,0.02577451,0.08782039,0.04506469,-0.02181557,-0
 .00085276,-0.00891809,0.00373742,0.00259742,-0.00034778,0.00471139,-0.
 00026099,-0.11842482,0.06858930,-0.02368467,-0.04717615,0.02417402,0.0
 0541659,0.00500528,0.01632756,-0.01526237,-0.00704244,-0.02483161,0.02
 080358,0.00852753,-0.01378024,0.00664580,-0.00378309,0.00165643,0.0042
 9088,0.00038962,0.00018844,-0.00050342,-0.00401451,0.00198075,0.001890
 33,-0.15737792,-0.01879764,0.04423931,0.67403915,-0.00009081,0.0000538
 2,0.00009875,0.00009242,-0.00023920,0.00010455,-0.00033071,0.00016613,
 -0.00002094,0.00024163,-0.00015212,-0.00001368,-0.00004565,-0.00010199
 ,0.00009642,-0.00011755,-0.00005989,0.00008158,-0.00000715,0.00001040,
 -0.00000489,0.00000223,-0.00002469,0.00001362,0.00000352,-0.00000058,0
 .00000210,0.00001637,-0.00001788,-0.00001443,-0.00084520,-0.00031060,0
 .00005178,0.00208737,-0.00105438,-0.00010356,-0.00062485,0.00138946,-0
 .00023500,0.00070055,-0.00071369,0.00022938,-0.00000858,0.00002434,-0.
 00000664,0.00000629,-0.00005732,0.00002548,-0.00224679,-0.00101930,0.0
 0548916,0.03448726,-0.00919560,-0.00502389,-0.00370086,0.00324668,-0.0
 0396199,0.00168681,-0.00228863,0.00027332,0.00018101,0.00005865,-0.000
 19961,-0.00002387,0.00000352,-0.00012758,0.04896542,-0.09976887,0.0055
 0001,-0.00498841,-0.02396723,0.02159857,-0.01916541,0.00533398,0.00652
 565,0.00323725,-0.00079841,0.00352719,0.05879002,-0.22378902,0.0769262
 5,0.04345720,0.00440826,-0.01541394,-0.00244601,-0.02632658,0.01281471
 ,-0.02223344,0.02285916,-0.00214104,0.00924353,-0.01118977,0.00548714,
 0.00088773,0.00392135,0.00354626,-0.00021649,-0.00081504,0.00021825,0.
 00338623,0.00135292,0.00045775,-0.03896461,-0.16802454,0.07491758,-0.1
 1141644,0.52708664,-0.00104651,0.00075168,0.00008087,0.00093608,-0.002
 63234,0.00129224,0.00268438,-0.00002094,-0.00109211,-0.00093654,0.0007
 1760,-0.00012065,0.00106026,0.00050429,-0.00070814,-0.00007017,-0.0011
 4419,0.00075107,0.00000164,0.00000666,-0.00000650,-0.00001062,0.000003
 73,-0.00000017,0.00001808,0.00000866,-0.00000762,-0.00001702,-0.000026
 65,-0.00000712,-0.00343850,0.00184127,-0.00058419,0.00270052,-0.005662
 13,0.00260606,0.00603520,-0.00108840,-0.00100139,-0.00260813,0.0022818
 1,-0.00036831,-0.00000297,0.00002894,-0.00000857,-0.00003487,0.0000096
 6,-0.00000605,-0.00736952,0.00942257,0.00311519,-0.00134742,-0.0112687
 1,0.01155505,0.01293166,-0.00687900,-0.00586754,-0.00631774,0.00529743
 ,-0.00175649,-0.00027991,0.00005112,-0.00006972,-0.00017452,-0.0001014
 7,-0.00007989,0.07308620,0.01446247,-0.09876146,-0.01154378,0.02810166
 ,-0.00639941,0.01714859,-0.00232548,-0.00120267,0.00067559,0.00295749,
 0.00458225,-0.01745877,0.07313918,-0.10667155,-0.00683486,-0.00796168,
 0.01428127,-0.00333471,0.00555939,-0.00988807,0.01915286,-0.00113694,-
 0.00071436,-0.00798221,0.01438501,-0.00298524,0.00477927,0.00324919,0.
 00613162,-0.00024615,0.00006175,-0.00054732,0.00099737,0.00100092,0.00
 311179,0.05705227,0.06712376,-0.13850444,-0.12820505,-0.19071831,0.329
 85157\\0.00004610,-0.00000703,-0.00001335,-0.00011539,-0.00012640,0.00
 012490,0.00009160,0.00014316,-0.00012636,0.00002057,-0.00004023,0.0000
 1761,-0.00004925,0.00002230,0.00000486,-0.00003669,0.00003859,-0.00001
 033,-0.00000336,0.00000854,-0.00000413,-0.00000946,0.00000061,0.000003
 27,0.00004310,-0.00001722,-0.00000572,0.00002984,-0.00003448,0.0000103
 7,0.00008258,0.00005946,-0.00006970,-0.00014824,-0.00019079,0.00017851
 ,0.00014597,0.00019222,-0.00017854,-0.00003480,-0.00009332,0.00007274,
 -0.00002288,0.00000174,0.00000774,-0.00000840,0.00002058,-0.00000983,0
 .00007344,0.00009559,-0.00008911,-0.00014610,-0.00019231,0.00017864,0.
 00014819,0.00019065,-0.00017840,-0.00007344,-0.00009558,0.00008911,-0.
 00000630,-0.00000820,0.00000765,0.00000640,0.00000833,-0.00000776,0.00
 003480,0.00009333,-0.00007275,-0.00008258,-0.00005945,0.00006969,0.000
 00847,-0.00002049,0.00000974,0.00002295,-0.00000164,-0.00000783,-0.000
 02059,0.00004023,-0.00001760,0.00004921,-0.00002230,-0.00000485,0.0000
 3671,-0.00003862,0.00001035,-0.00004609,0.00000701,0.00001336,0.000009
 49,-0.00000057,-0.00000331,-0.00004310,0.00001722,0.00000572,-0.000029
 84,0.00003448,-0.00001037,0.00000339,-0.00000850,0.00000409,0.00011542
 ,0.00012628,-0.00012484,-0.00009172,-0.00014317,0.00012642\\\@


 If fifty million people say a stupid thing,
 it is still a stupid thing.
                   -- Anatole France
 Job cpu time:       0 days  2 hours 38 minutes 57.2 seconds.
 File lengths (MBytes):  RWF=    572 Int=      0 D2E=      0 Chk=     12 Scr=      1
 Normal termination of Gaussian 09 at Fri Jul  7 16:38:18 2017.
14793.82user 161.59system 31:15.17elapsed 797%CPU (0avgtext+0avgdata 2046664maxresident)k
491656inputs+3121888outputs (357major+99683962minor)pagefaults 0swaps
