 Entering Gaussian System, Link 0=g09
 Initial command:
 /soft/gaussian/g09.d01_itasca/g09/l1.exe "/scratch/graha682/1920631.node1081.localdomain/Gau-15399.inp" -scrdir="/scratch/graha682/1920631.node1081.localdomain/"
 Entering Link 1 = /soft/gaussian/g09.d01_itasca/g09/l1.exe PID=     15400.
  
 Copyright (c) 1988,1990,1992,1993,1995,1998,2003,2009,2013,
            Gaussian, Inc.  All Rights Reserved.
  
 This is part of the Gaussian(R) 09 program.  It is based on
 the Gaussian(R) 03 system (copyright 2003, Gaussian, Inc.),
 the Gaussian(R) 98 system (copyright 1998, Gaussian, Inc.),
 the Gaussian(R) 94 system (copyright 1995, Gaussian, Inc.),
 the Gaussian 92(TM) system (copyright 1992, Gaussian, Inc.),
 the Gaussian 90(TM) system (copyright 1990, Gaussian, Inc.),
 the Gaussian 88(TM) system (copyright 1988, Gaussian, Inc.),
 the Gaussian 86(TM) system (copyright 1986, Carnegie Mellon
 University), and the Gaussian 82(TM) system (copyright 1983,
 Carnegie Mellon University). Gaussian is a federally registered
 trademark of Gaussian, Inc.
  
 This software contains proprietary and confidential information,
 including trade secrets, belonging to Gaussian, Inc.
  
 This software is provided under written license and may be
 used, copied, transmitted, or stored only in accord with that
 written license.
  
 The following legend is applicable only to US Government
 contracts under FAR:
  
                    RESTRICTED RIGHTS LEGEND
  
 Use, reproduction and disclosure by the US Government is
 subject to restrictions as set forth in subparagraphs (a)
 and (c) of the Commercial Computer Software - Restricted
 Rights clause in FAR 52.227-19.
  
 Gaussian, Inc.
 340 Quinnipiac St., Bldg. 40, Wallingford CT 06492
  
  
 ---------------------------------------------------------------
 Warning -- This program may not be used in any manner that
 competes with the business of Gaussian, Inc. or will provide
 assistance to any competitor of Gaussian, Inc.  The licensee
 of this program is prohibited from giving any competitor of
 Gaussian, Inc. access to this program.  By using this program,
 the user acknowledges that Gaussian, Inc. is engaged in the
 business of creating and licensing software in the field of
 computational chemistry and represents and warrants to the
 licensee that it is not a competitor of Gaussian, Inc. and that
 it will not use this program in any manner prohibited above.
 ---------------------------------------------------------------
  

 Cite this work as:
 Gaussian 09, Revision D.01,
 M. J. Frisch, G. W. Trucks, H. B. Schlegel, G. E. Scuseria, 
 M. A. Robb, J. R. Cheeseman, G. Scalmani, V. Barone, B. Mennucci, 
 G. A. Petersson, H. Nakatsuji, M. Caricato, X. Li, H. P. Hratchian, 
 A. F. Izmaylov, J. Bloino, G. Zheng, J. L. Sonnenberg, M. Hada, 
 M. Ehara, K. Toyota, R. Fukuda, J. Hasegawa, M. Ishida, T. Nakajima, 
 Y. Honda, O. Kitao, H. Nakai, T. Vreven, J. A. Montgomery, Jr., 
 J. E. Peralta, F. Ogliaro, M. Bearpark, J. J. Heyd, E. Brothers, 
 K. N. Kudin, V. N. Staroverov, T. Keith, R. Kobayashi, J. Normand, 
 K. Raghavachari, A. Rendell, J. C. Burant, S. S. Iyengar, J. Tomasi, 
 M. Cossi, N. Rega, J. M. Millam, M. Klene, J. E. Knox, J. B. Cross, 
 V. Bakken, C. Adamo, J. Jaramillo, R. Gomperts, R. E. Stratmann, 
 O. Yazyev, A. J. Austin, R. Cammi, C. Pomelli, J. W. Ochterski, 
 R. L. Martin, K. Morokuma, V. G. Zakrzewski, G. A. Voth, 
 P. Salvador, J. J. Dannenberg, S. Dapprich, A. D. Daniels, 
 O. Farkas, J. B. Foresman, J. V. Ortiz, J. Cioslowski, 
 and D. J. Fox, Gaussian, Inc., Wallingford CT, 2013.
 
 ******************************************
 Gaussian 09:  ES64L-G09RevD.01 24-Apr-2013
                10-Jul-2017 
 ******************************************
 %LindaWorkers=ic-node0057
 %NProcShared=8
 Will use up to    8 processors via shared memory.
 %Mem=11800mb
 %chk=20170630_augccpVTZ_m06_chloroflouropentane_trans.chk
 SetLPE:  input flags=" -workerwait 250000 -opt "Tsnet.Node.lindarsharg: ssh " "
 SetLPE:    new flags=" -workerwait 250000 -opt "Tsnet.Node.lindarsharg: ssh "  -nodelist 'ic-node0057'"
 Will use up to    1 processors via Linda.
 --------------------------------------------
 # opt=qst2 aug-cc-pvtz geom=connectivity m06
 --------------------------------------------
 1/5=1,14=-1,18=20,26=3,27=202,38=1,57=2/1,3;
 2/9=110,12=2,17=6,18=5,40=1/2;
 3/5=16,6=1,7=10,11=2,16=1,25=1,30=1,71=1,74=-54/1,2,3;
 4//1;
 5/5=2,38=5/2;
 6/7=2,8=2,9=2,10=2,28=1/1;
 7//1,2,3,16;
 1/5=1,14=-1,18=20,26=3,27=202/3(2);
 2/9=110/2;
 99//99;
 2/9=110/2;
 3/5=16,6=1,7=10,11=2,16=1,25=1,30=1,71=1,74=-54/1,2,3;
 4/5=5,16=3,69=1/1;
 5/5=2,38=5/2;
 7//1,2,3,16;
 1/5=1,14=-1,18=20,26=3,27=202/3(-5);
 2/9=110/2;
 6/7=2,8=2,9=2,10=2,19=2,28=1/1;
 99/9=1/99;
 ----------------------------------
 1-chloro-1-flouro-pentane reactant
 ----------------------------------
 Symbolic Z-matrix:
 Charge = -1 Multiplicity = 1
 C                     1.29761   0.11244   0.46751 
 H                     1.19583   1.18042   0.19935 
 H                     1.30864  -0.01711   1.55018 
 C                     0.18232  -0.65899  -0.17856 
 H                     0.23085  -0.4924   -1.26016 
 H                     0.29313  -1.73855  -0.00898 
 C                    -1.15337  -0.15206   0.33623 
 H                    -1.24031  -0.3716    1.41065 
 H                    -1.13498   0.94526   0.21967 
 C                    -2.3288   -0.76697  -0.39422 
 H                    -2.24849  -0.51952  -1.45881 
 H                    -2.28384  -1.8634   -0.33399 
 Cl                    2.92597  -0.52191  -0.09119 
 F                     0.01093   2.5135   -0.20798 
 C                    -3.65832  -0.2759    0.14156 
 H                    -4.50917  -0.70058  -0.39721 
 H                    -3.77051  -0.5345    1.19847 
 H                    -3.71761   0.81188   0.06778 
 
 Add virtual bond connecting atoms F14        and H2         Dist= 3.46D+00.
 -------------------
 Title Card Required
 -------------------
 Symbolic Z-matrix:
 Charge = -1 Multiplicity = 1
 C                    -2.13159   0.39775  -0.06622 
 H                    -2.75613   0.97906  -0.75085 
 H                    -1.77499   1.05777   0.7291 
 C                    -0.97129  -0.23139  -0.77089 
 H                    -1.33369  -0.91321  -1.55143 
 H                    -0.42304   0.58903  -1.24854 
 C                    -0.00919  -0.93169   0.16554 
 H                     0.28058  -0.20865   0.93718 
 H                    -0.49409  -1.78461   0.65794 
 C                     1.25081  -1.38008  -0.54524 
 H                     1.00051  -2.09938  -1.33647 
 H                     1.68471  -0.49909  -1.02947 
 Cl                    1.20425   2.30071   0.10731 
 F                    -2.95845  -0.56994   0.51161 
 C                     2.26205  -1.97638   0.41075 
 H                     3.16806  -2.31112  -0.09957 
 H                     2.55305  -1.22803   1.15164 
 H                     1.84405  -2.83366   0.94817 
 
 Add virtual bond connecting atoms Cl13       and H6         Dist= 5.15D+00.
 Add virtual bond connecting atoms Cl13       and H8         Dist= 5.29D+00.
 Iteration  1 RMS(Cart)=  0.09000903 RMS(Int)=  0.95649696
 Iteration  2 RMS(Cart)=  0.07166445 RMS(Int)=  0.94347210
 Iteration  3 RMS(Cart)=  0.06386251 RMS(Int)=  0.92984930
 Iteration  4 RMS(Cart)=  0.05882605 RMS(Int)=  0.92311794
 Iteration  5 RMS(Cart)=  0.05460847 RMS(Int)=  0.92054062
 Iteration  6 RMS(Cart)=  0.06246361 RMS(Int)=  0.91176829
 Iteration  7 RMS(Cart)=  0.04674987 RMS(Int)=  0.90909123
 Iteration  8 RMS(Cart)=  0.02835680 RMS(Int)=  0.91018319
 Iteration  9 RMS(Cart)=  0.01791271 RMS(Int)=  0.91121896
 Iteration 10 RMS(Cart)=  0.01344873 RMS(Int)=  0.91144403
 Iteration 11 RMS(Cart)=  0.01218330 RMS(Int)=  0.91143348
 Iteration 12 RMS(Cart)=  0.01115254 RMS(Int)=  0.91135854
 Iteration 13 RMS(Cart)=  0.01025928 RMS(Int)=  0.91126238
 Iteration 14 RMS(Cart)=  0.00924269 RMS(Int)=  0.91114836
 Iteration 15 RMS(Cart)=  0.00606848 RMS(Int)=  0.91100513
 Iteration 16 RMS(Cart)=  0.00238724 RMS(Int)=  0.91081871
 Iteration 17 RMS(Cart)=  0.00131045 RMS(Int)=  0.91066695
 Iteration 18 RMS(Cart)=  0.00075903 RMS(Int)=  0.91055978
 Iteration 19 RMS(Cart)=  0.00044795 RMS(Int)=  0.91048825
 Iteration 20 RMS(Cart)=  0.00026900 RMS(Int)=  0.91044164
 Iteration 21 RMS(Cart)=  0.00016425 RMS(Int)=  0.91041157
 Iteration 22 RMS(Cart)=  0.00010189 RMS(Int)=  0.91039221
 Iteration 23 RMS(Cart)=  0.00006414 RMS(Int)=  0.91037974
 Iteration 24 RMS(Cart)=  0.00004091 RMS(Int)=  0.91037168
 Iteration 25 RMS(Cart)=  0.00002640 RMS(Int)=  0.91036646
 Iteration 26 RMS(Cart)=  0.00001720 RMS(Int)=  0.91036306
 Iteration 27 RMS(Cart)=  0.00001130 RMS(Int)=  0.91036084
 Iteration 28 RMS(Cart)=  0.00000748 RMS(Int)=  0.91035938
 Iteration 29 RMS(Cart)=  0.00000498 RMS(Int)=  0.91035842
 Iteration 30 RMS(Cart)=  0.00000333 RMS(Int)=  0.91035779
 Iteration 31 RMS(Cart)=  0.00000224 RMS(Int)=  0.91035737
 Iteration 32 RMS(Cart)=  0.00000152 RMS(Int)=  0.91035709
 Iteration 33 RMS(Cart)=  0.00000103 RMS(Int)=  0.91035691
 Iteration 34 RMS(Cart)=  0.00000070 RMS(Int)=  0.91035678
 Iteration  1 RMS(Cart)=  0.00000048 RMS(Int)=  0.91035670
 Iteration  1 RMS(Cart)=  0.00000033 RMS(Int)=  0.91035664
 Iteration  1 RMS(Cart)=  0.00000023 RMS(Int)=  0.91035661
 Iteration  1 RMS(Cart)=  0.00000016 RMS(Int)=  0.91035658
 Iteration  1 RMS(Cart)=  0.00000011 RMS(Int)=  0.91035656
 Iteration  1 RMS(Cart)=  0.00000008 RMS(Int)=  0.91035655
 Iteration  1 RMS(Cart)=  0.00000005 RMS(Int)=  0.91035655
 Iteration  1 RMS(Cart)=  0.00000004 RMS(Int)=  0.91035654
 Iteration  1 RMS(Cart)=  0.00000003 RMS(Int)=  0.91035654
   Var     Old X     New X   DQ Goal   DQ Act.  Rel. Err.   Overall
     1    2.0897    2.0460   -0.0112   -0.0437    3.8898
     2    2.0606    2.0633    0.0027    0.0027
     3    2.8386    2.8245   -0.0056   -0.0141
     4    3.4671    5.3515    1.8989    1.8845    0.9924
     5    5.3037    4.0167   -1.3310   -1.2870    0.9669
     6    3.4572    3.5956    0.1692    0.1384    0.8182
     7    2.0701    2.0724    0.0024    0.0024
     8    2.0757    2.1051   -0.0020    0.0294
     9    2.8697    2.7440   -0.0041   -0.1257
    10    5.4831    5.1933   -0.1684   -0.2898    1.7206
    11    2.0788    2.1198   -0.0034    0.0410
    12    2.0856    2.0800   -0.0056   -0.0056
    13    2.8617    2.8619    0.0002    0.0002
    14    8.3739    6.9623   -1.5415   -1.4115    0.9157
    15    2.0710    2.0732    0.0022    0.0022
    16    2.0768    2.0730   -0.0038   -0.0038
    17    2.8633    2.8621   -0.0012   -0.0012
    18    2.0654    2.0649   -0.0005   -0.0005
    19    2.0671    2.0658   -0.0012   -0.0012
    20    2.0634    2.0661    0.0027    0.0027
    21    1.9353    1.9913   -0.0190    0.0560   -2.9475
    22    1.9001    2.2361    0.0256    0.3361   13.1045
    23    1.9196    1.9909   -0.0426    0.0714   -1.6762
    24    0.3850    1.1044    0.7394    0.7194    0.9729
    25    1.9536    2.0556   -0.0161    0.1020   -6.3419
    26    1.8258    1.0233   -0.4585   -0.8025    1.7502
    27    1.9233    1.8824   -0.0186   -0.0409    2.2033
    28    1.9288    1.6099   -0.4088   -0.3190    0.7803
    29    1.5662    1.7587    0.1877    0.1924    1.0254
    30    2.5276    1.5041   -0.8992   -1.0235    1.1383
    31    1.8899    1.7875    0.0139   -0.1024   -7.3631
    32    1.9428    1.9940   -0.0449    0.0512   -1.1395
    33    1.9133    1.7054    0.0323   -0.2078   -6.4342
    34    1.8728    1.8629    0.0119   -0.0100   -0.8368
    35    1.8996    2.1378    0.0209    0.2382   11.4006
    36    1.9439    1.9671   -0.0353    0.0232   -0.6561
    37    1.2398    1.8677    0.4580    0.6278    1.3707
    38    1.9113    1.8198   -0.0189   -0.0915    4.8488
    39    1.8561    1.9746    0.0394    0.1185    3.0095
    40    1.9645    1.9009   -0.0045   -0.0636
    41    1.8785    1.6991    0.0055   -0.1794
    42    1.9058    2.1423   -0.0122    0.2365  -19.4396
    43    1.9452    1.9215   -0.0095   -0.0237
    44    1.1609    1.8294    0.4494    0.6686    1.4877
    45    1.8965    1.9345    0.0119    0.0379    3.1938
    46    1.9251    1.9685   -0.0253    0.0434   -1.7143
    47    1.9594    1.9536   -0.0016   -0.0058
    48    1.8499    1.8587    0.0121    0.0088    0.7229
    49    1.9120    1.8524    0.0078   -0.0596
    50    1.9176    1.8901   -0.0044   -0.0275
    51    0.5576    0.7329    0.1767    0.1753    0.9918
    52    1.9637    1.9385   -0.0017   -0.0252
    53    1.9337    1.9477   -0.0100    0.0139
    54    1.9248    1.9352    0.0090    0.0104
    55    1.8803    1.8802    0.0006   -0.0002
    56    1.8876    1.8388   -0.0029   -0.0488
    57    1.8705    1.9198    0.0052    0.0493
    58   -1.6132   -1.7222   -0.2089   -0.1090    0.5216
    59    0.5433    1.4412    0.7920    0.8978    1.1336
    60    2.6590   -2.8543   -2.8206   -5.5133    1.9547
    61    1.0024    0.0973   -1.0294   -0.9051    0.8793
    62    3.0570    2.1043   -1.0328   -0.9527    0.9225
    63   -1.0677   -2.0981    2.0554   -1.0304   -0.5013
    64   -3.1352   -3.0218    3.1256    0.1134    0.0363
    65   -1.0806   -1.0149   -0.0193    0.0658   -3.4001
    66    1.0779    1.0660   -0.0727   -0.0119    0.1638
    67   -1.1076   -2.0553   -0.8175   -0.9477    1.1593
    68    0.9470   -0.0483   -0.8209   -0.9953    1.2125
    69    3.1054    2.0325   -0.8743   -1.0730    1.2273
    70    1.1978    1.2207   -0.0860    0.0229   -0.2656
    71   -3.0308   -3.0556    3.0522   -0.0247   -0.0081
    72   -0.8723   -0.9747   -0.1428   -0.1024    0.7172
    73   -0.5332    0.0521    0.9328    0.5852    0.6274
    74    1.5317    2.0144   -2.2104    0.4827   -0.2184
    75   -2.6741   -1.8742    0.9431    0.7999    0.8482
    76   -1.1396   -0.9068    0.1033    0.2328    2.2548
    77    0.8855    0.9190    0.1210    0.0336    0.2775
    78    3.0202    3.0619   -3.0078    0.0416   -0.0138
    79    3.0795   -2.8281   -3.0917   -5.9076    1.9108
    80   -1.1786   -1.0023    0.0676    0.1763    2.6079
    81    0.9562    1.1405    0.0804    0.1844    2.2933
    82    1.0182    1.1944    0.0443    0.1762    3.9814
    83    3.0433    3.0203   -3.0796   -0.0230    0.0075
    84   -1.1051   -1.1201    0.0748   -0.0150   -0.2003
    85    0.7918    0.9267   -0.2386    0.1349   -0.5653
    86    0.3219   -0.1244   -0.6076   -0.4463    0.7344
    87   -1.6889   -2.1525   -0.6471   -0.4637    0.7165
    88    2.4802    2.0422   -0.6319   -0.4380    0.6932
    89   -1.0423   -1.1388   -0.0153   -0.0965    6.3144
    90    0.9785    0.9434   -0.0084   -0.0351
    91    3.1233    3.0800   -0.0324   -0.0433    1.3338
    92    3.1144    3.0150   -3.1224   -0.0994    0.0318
    93   -1.1480   -1.1861    0.0261   -0.0381   -1.4599
    94    0.9968    0.9506    0.0020   -0.0462
    95    1.0414    1.0356    0.0255   -0.0058   -0.2258
    96    3.0622    3.1178    0.0324    0.0556    1.7167
    97   -1.0762   -1.0288    0.0083    0.0475
    98   -1.2455   -0.3968    0.8363    0.8487    1.0149
    99    3.1198    3.1095    0.0054   -0.0103
   100   -1.0573   -1.0754   -0.0018   -0.0181
   101    1.0108    1.0713    0.0039    0.0605
   102    1.0111    0.9969   -0.0141   -0.0142    1.0032
   103    3.1172    3.0952   -0.0214   -0.0220    1.0282
   104   -1.0979   -1.0413   -0.0156    0.0566   -3.6236
   105   -1.0143   -0.9929   -0.0308    0.0214   -0.6971
   106    1.0917    1.1054   -0.0380    0.0136   -0.3588
   107   -3.1234   -3.0312    3.1094    0.0922    0.0297

 GradGradGradGradGradGradGradGradGradGradGradGradGradGradGradGradGradGrad
 Berny optimization.
 Initialization pass.
                           ----------------------------
                           !    Initial Parameters    !
                           ! (Angstroms and Degrees)  !
 --------------------------                            --------------------------
 ! Name  Definition        TS        Reactant  Product Derivative Info.         !
 --------------------------------------------------------------------------------
 ! R1    R(1,2)             1.0827    1.1058    1.0939 estimate D2E/DX2         !
 ! R2    R(1,3)             1.0919    1.0904    1.0933 estimate D2E/DX2         !
 ! R3    R(1,4)             1.4947    1.5021    1.4962 estimate D2E/DX2         !
 ! R4    R(1,13)            2.8319    1.8347    3.8444 estimate D2E/DX2         !
 ! R5    R(1,14)            2.1255    2.8066    1.3979 estimate D2E/DX2         !
 ! R6    R(2,14)            1.9027    1.8295    2.0085 estimate D2E/DX2         !
 ! R7    R(4,5)             1.0967    1.0954    1.0979 estimate D2E/DX2         !
 ! R8    R(4,6)             1.1139    1.0984    1.0963 estimate D2E/DX2         !
 ! R9    R(4,7)             1.4521    1.5186    1.5143 estimate D2E/DX2         !
 ! R10   R(6,13)            2.7482    2.9015    2.7233 estimate D2E/DX2         !
 ! R11   R(7,8)             1.1218    1.1001    1.0964 estimate D2E/DX2         !
 ! R12   R(7,9)             1.1007    1.1037    1.0978 estimate D2E/DX2         !
 ! R13   R(7,10)            1.5145    1.5144    1.5146 estimate D2E/DX2         !
 ! R14   R(8,13)            3.6843    4.4313    2.7998 estimate D2E/DX2         !
 ! R15   R(10,11)           1.0971    1.0959    1.0982 estimate D2E/DX2         !
 ! R16   R(10,12)           1.097     1.099     1.0949 estimate D2E/DX2         !
 ! R17   R(10,15)           1.5146    1.5152    1.514  estimate D2E/DX2         !
 ! R18   R(15,16)           1.0927    1.093     1.0924 estimate D2E/DX2         !
 ! R19   R(15,17)           1.0932    1.0939    1.0925 estimate D2E/DX2         !
 ! R20   R(15,18)           1.0933    1.0919    1.0947 estimate D2E/DX2         !
 ! A1    A(2,1,3)         114.0933  110.8824  108.7037 estimate D2E/DX2         !
 ! A2    A(2,1,4)         128.1199  108.8651  111.8038 estimate D2E/DX2         !
 ! A3    A(2,1,13)        114.0729  109.9842  105.1057 estimate D2E/DX2         !
 ! A4    A(2,1,14)         63.2764   22.0602  106.7901 estimate D2E/DX2         !
 ! A5    A(3,1,4)         117.7758  111.9334  110.091  estimate D2E/DX2         !
 ! A6    A(3,1,13)         58.6328  104.6134   52.0713 estimate D2E/DX2         !
 ! A7    A(3,1,14)        107.8513  110.1968  108.0677 estimate D2E/DX2         !
 ! A8    A(4,1,13)         92.2388  110.5135   63.6722 estimate D2E/DX2         !
 ! A9    A(4,1,14)        100.7634   89.7391  111.2423 estimate D2E/DX2         !
 ! A10   A(1,2,14)         86.1765  144.8182   41.7818 estimate D2E/DX2         !
 ! A11   A(1,4,5)         102.4139  108.2815  109.8754 estimate D2E/DX2         !
 ! A12   A(1,4,6)         114.2461  111.3118  106.1617 estimate D2E/DX2         !
 ! A13   A(1,4,7)          97.714   109.6222  113.3237 estimate D2E/DX2         !
 ! A14   A(5,4,6)         106.734   107.3041  108.6667 estimate D2E/DX2         !
 ! A15   A(5,4,7)         122.4847  108.8394  111.2332 estimate D2E/DX2         !
 ! A16   A(6,4,7)         112.7046  111.3758  107.3251 estimate D2E/DX2         !
 ! A17   A(4,6,13)        107.01     71.0372  123.5243 estimate D2E/DX2         !
 ! A18   A(4,7,8)         104.2656  109.5109  107.3474 estimate D2E/DX2         !
 ! A19   A(4,7,9)         113.1358  106.3464  110.8585 estimate D2E/DX2         !
 ! A20   A(4,7,10)        108.9141  112.5601  112.0411 estimate D2E/DX2         !
 ! A21   A(8,7,9)          97.3539  107.6316  108.2658 estimate D2E/DX2         !
 ! A22   A(8,7,10)        122.7428  109.1917  107.7975 estimate D2E/DX2         !
 ! A23   A(9,7,10)        110.0942  111.4514  110.3625 estimate D2E/DX2         !
 ! A24   A(7,8,13)        104.8181   66.5123  118.0097 estimate D2E/DX2         !
 ! A25   A(7,10,11)       110.8366  108.6625  110.024  estimate D2E/DX2         !
 ! A26   A(7,10,12)       112.7844  110.2984  107.398  estimate D2E/DX2         !
 ! A27   A(7,10,15)       111.9356  112.2663  112.0828 estimate D2E/DX2         !
 ! A28   A(11,10,12)      106.4932  105.9916  107.3793 estimate D2E/DX2         !
 ! A29   A(11,10,15)      106.1324  109.5499  110.4382 estimate D2E/DX2         !
 ! A30   A(12,10,15)      108.2925  109.8679  109.358  estimate D2E/DX2         !
 ! A31   A(6,13,8)         41.9913   31.9489   52.2003 estimate D2E/DX2         !
 ! A32   A(10,15,16)      111.0675  112.5096  112.3142 estimate D2E/DX2         !
 ! A33   A(10,15,17)      111.5938  110.7956  109.6534 estimate D2E/DX2         !
 ! A34   A(10,15,18)      110.8774  110.2807  111.3078 estimate D2E/DX2         !
 ! A35   A(16,15,17)      107.7249  107.7341  107.8052 estimate D2E/DX2         !
 ! A36   A(16,15,18)      105.3548  108.1511  107.821  estimate D2E/DX2         !
 ! A37   A(17,15,18)      109.9951  107.1718  107.7694 estimate D2E/DX2         !
 ! D1    D(3,1,2,14)      -98.6745  -92.4318 -116.3699 estimate D2E/DX2         !
 ! D2    D(4,1,2,14)       82.5721   31.1306  121.8914 estimate D2E/DX2         !
 ! D3    D(13,1,2,14)    -163.5409  152.3495 -170.8636 estimate D2E/DX2         !
 ! D4    D(2,1,4,5)         5.5753   57.4325  -60.5241 estimate D2E/DX2         !
 ! D5    D(2,1,4,6)       120.5666  175.151    56.8052 estimate D2E/DX2         !
 ! D6    D(2,1,4,7)      -120.2115  -61.1765  174.3594 estimate D2E/DX2         !
 ! D7    D(3,1,4,5)      -173.1385 -179.6336  178.5394 estimate D2E/DX2         !
 ! D8    D(3,1,4,6)       -58.1471  -61.915   -64.1313 estimate D2E/DX2         !
 ! D9    D(3,1,4,7)        61.0748   61.7575   53.4229 estimate D2E/DX2         !
 ! D10   D(13,1,4,5)     -117.7609  -63.4621 -157.1396 estimate D2E/DX2         !
 ! D11   D(13,1,4,6)       -2.7696   54.2565  -39.8104 estimate D2E/DX2         !
 ! D12   D(13,1,4,7)      116.4524  177.929    77.7438 estimate D2E/DX2         !
 ! D13   D(14,1,4,5)       69.9382   68.629    58.7712 estimate D2E/DX2         !
 ! D14   D(14,1,4,6)     -175.0705 -173.6525  176.1005 estimate D2E/DX2         !
 ! D15   D(14,1,4,7)      -55.8485  -49.98    -66.3453 estimate D2E/DX2         !
 ! D16   D(1,4,6,13)        2.9824  -30.5479   76.3387 estimate D2E/DX2         !
 ! D17   D(5,4,6,13)      115.4157   87.7603 -165.5281 estimate D2E/DX2         !
 ! D18   D(7,4,6,13)     -107.3841 -153.2174  -45.1419 estimate D2E/DX2         !
 ! D19   D(1,4,7,8)       -51.9539  -65.2945  -53.4613 estimate D2E/DX2         !
 ! D20   D(1,4,7,9)        52.6573   50.7335   64.6    estimate D2E/DX2         !
 ! D21   D(1,4,7,10)      175.4324  173.0466 -171.6213 estimate D2E/DX2         !
 ! D22   D(5,4,7,8)      -162.039   176.4424 -177.8439 estimate D2E/DX2         !
 ! D23   D(5,4,7,9)       -57.4278  -67.5296  -59.7826 estimate D2E/DX2         !
 ! D24   D(5,4,7,10)       65.3472   54.7836   63.9961 estimate D2E/DX2         !
 ! D25   D(6,4,7,8)        68.4368   58.3404   63.4123 estimate D2E/DX2         !
 ! D26   D(6,4,7,9)       173.048   174.3684 -178.5265 estimate D2E/DX2         !
 ! D27   D(6,4,7,10)      -64.1769  -63.3184  -54.7478 estimate D2E/DX2         !
 ! D28   D(4,6,13,8)       53.0946   45.3675   18.028  estimate D2E/DX2         !
 ! D29   D(4,7,8,13)       -7.1263   18.4427  -51.1855 estimate D2E/DX2         !
 ! D30   D(9,7,8,13)     -123.3317  -96.7665 -170.9161 estimate D2E/DX2         !
 ! D31   D(10,7,8,13)     117.0087  142.1059   69.6912 estimate D2E/DX2         !
 ! D32   D(4,7,10,11)     -65.2471  -59.7195  -61.4703 estimate D2E/DX2         !
 ! D33   D(4,7,10,12)      54.0504   56.0638   55.1036 estimate D2E/DX2         !
 ! D34   D(4,7,10,15)     176.4731  178.9517  175.235  estimate D2E/DX2         !
 ! D35   D(8,7,10,11)     172.7455  178.4405 -179.3625 estimate D2E/DX2         !
 ! D36   D(8,7,10,12)     -67.9571  -65.7762  -62.7886 estimate D2E/DX2         !
 ! D37   D(8,7,10,15)      54.4657   57.1116   57.3428 estimate D2E/DX2         !
 ! D38   D(9,7,10,11)      59.3368   59.6663   62.5858 estimate D2E/DX2         !
 ! D39   D(9,7,10,12)     178.6342  175.4496  179.1597 estimate D2E/DX2         !
 ! D40   D(9,7,10,15)     -58.9431  -61.6625  -60.7088 estimate D2E/DX2         !
 ! D41   D(7,8,13,6)      -22.7329  -71.3603   24.4673 estimate D2E/DX2         !
 ! D42   D(7,10,15,16)    178.1628  178.7522  179.374  estimate D2E/DX2         !
 ! D43   D(7,10,15,17)    -61.6153  -60.5786  -60.7875 estimate D2E/DX2         !
 ! D44   D(7,10,15,18)     61.3789   57.9125   58.3652 estimate D2E/DX2         !
 ! D45   D(11,10,15,16)    57.1206   57.9335   56.3128 estimate D2E/DX2         !
 ! D46   D(11,10,15,17)   177.3425  178.6027  176.1513 estimate D2E/DX2         !
 ! D47   D(11,10,15,18)   -59.6633  -62.9062  -64.696  estimate D2E/DX2         !
 ! D48   D(12,10,15,16)   -56.8888  -58.1176  -61.6428 estimate D2E/DX2         !
 ! D49   D(12,10,15,17)    63.3331   62.5516   58.1956 estimate D2E/DX2         !
 ! D50   D(12,10,15,18)  -173.6727 -178.9573  177.3483 estimate D2E/DX2         !
 --------------------------------------------------------------------------------
 Trust Radius=3.00D-01 FncErr=1.00D-07 GrdErr=1.00D-06
 Number of steps in this run=    108 maximum allowed number of steps=    108.
 Search for a saddle point of order  1.
 GradGradGradGradGradGradGradGradGradGradGradGradGradGradGradGradGradGrad

                          Input orientation:                          
 ---------------------------------------------------------------------
 Center     Atomic      Atomic             Coordinates (Angstroms)
 Number     Number       Type             X           Y           Z
 ---------------------------------------------------------------------
      1          6           0        1.028066    0.482480    0.254104
      2          1           0        1.649995    1.283779   -0.124546
      3          1           0        1.139287    0.299861    1.324839
      4          6           0        0.083603   -0.390857   -0.507035
      5          1           0        0.261297   -0.082458   -1.544347
      6          1           0        0.319616   -1.478056   -0.450744
      7          6           0       -1.127896   -0.042288    0.213562
      8          1           0       -0.862099   -0.197082    1.292319
      9          1           0       -1.302811    1.043165    0.265912
     10          6           0       -2.306047   -0.727938   -0.446306
     11          1           0       -2.463622   -0.342362   -1.461227
     12          1           0       -2.167215   -1.811785   -0.542984
     13         17           0        2.480170   -1.745924    1.226379
     14          9           0        0.099782    2.378889    0.009524
     15          6           0       -3.598173   -0.479212    0.303703
     16          1           0       -4.443190   -0.952835   -0.201842
     17          1           0       -3.555018   -0.875076    1.321789
     18          1           0       -3.835866    0.587697    0.327198
 ---------------------------------------------------------------------
                    Distance matrix (angstroms):
                    1          2          3          4          5
     1  C    0.000000
     2  H    1.082705   0.000000
     3  H    1.091876   1.824728   0.000000
     4  C    1.494677   2.324712   2.224257   0.000000
     5  H    2.035072   2.410586   3.024775   1.096678   0.000000
     6  H    2.200548   3.082863   2.643018   1.113945   1.773996
     7  C    2.219279   3.096684   2.547964   1.452064   2.240918
     8  H    2.261066   3.242078   2.062415   2.041954   3.053168
     9  H    2.397394   2.988212   2.763633   2.139161   2.643955
    10  C    3.615522   4.449810   4.007949   2.414071   2.865937
    11  H    3.976759   4.620919   4.599518   2.720512   2.738547
    12  H    4.013580   4.932414   4.345201   2.662050   3.144991
    13  Cl   2.831909   3.419546   2.448040   3.253378   3.920133
    14  F    2.125535   1.902735   2.670764   2.817550   2.915276
    15  C    4.725399   5.552909   4.908482   3.771017   4.297465
    16  H    5.674739   6.491172   5.921490   4.571740   4.969111
    17  H    4.897711   5.817619   4.839110   4.101052   4.838103
    18  H    4.865619   5.548267   5.082350   4.125014   4.553958
                    6          7          8          9         10
     6  H    0.000000
     7  C    2.144300   0.000000
     8  H    2.464875   1.121752   0.000000
     9  H    3.082599   1.100702   1.669117   0.000000
    10  C    2.730715   1.514458   2.321554   2.156513   0.000000
    11  H    3.171323   2.163128   3.188730   2.500036   1.097070
    12  H    2.510819   2.187160   2.771089   3.090672   1.096971
    13  Cl   2.748180   4.116591   3.684294   4.797131   5.171272
    14  F    3.890527   2.722301   3.034206   1.953755   3.955777
    15  C    4.112900   2.510238   2.922852   2.754586   1.514585
    16  H    4.798137   3.463066   3.953213   3.750305   2.162803
    17  H    4.303283   2.795107   2.777113   3.141172   2.169732
    18  H    4.705375   2.782605   3.223450   2.574408   2.160914
                   11         12         13         14         15
    11  H    0.000000
    12  H    1.757905   0.000000
    13  Cl   5.799508   4.973246   0.000000
    14  F    4.017382   4.796488   4.915391   0.000000
    15  C    2.102595   2.130791   6.277113   4.682964   0.000000
    16  H    2.424338   2.456467   7.113489   5.637699   1.092679
    17  H    3.036462   2.506152   6.098441   5.066349   1.093193
    18  H    2.438550   3.049447   6.793131   4.335736   1.093318
                   16         17         18
    16  H    0.000000
    17  H    1.765318   0.000000
    18  H    1.738380   1.791031   0.000000
 Stoichiometry    C5H11ClF(1-)
 Framework group  C1[X(C5H11ClF)]
 Deg. of freedom    48
 Full point group                 C1      NOp   1
 Largest Abelian subgroup         C1      NOp   1
 Largest concise Abelian subgroup C1      NOp   1
                         Standard orientation:                         
 ---------------------------------------------------------------------
 Center     Atomic      Atomic             Coordinates (Angstroms)
 Number     Number       Type             X           Y           Z
 ---------------------------------------------------------------------
      1          6           0       -0.919668    1.008114    0.074609
      2          1           0       -1.262606    1.989037    0.378640
      3          1           0       -1.280956    0.693979   -0.906708
      4          6           0       -0.055337    0.055806    0.836253
      5          1           0        0.050779    0.557438    1.805690
      6          1           0       -0.529306   -0.932178    1.036531
      7          6           0        1.032838   -0.028452   -0.121487
      8          1           0        0.528392   -0.278430   -1.091730
      9          1           0        1.426242    0.956206   -0.416829
     10          6           0        2.140938   -0.876054    0.467807
     11          1           0        2.579568   -0.388443    1.347239
     12          1           0        1.791253   -1.861302    0.799997
     13         17           0       -2.988140   -0.907807   -0.190674
     14          9           0        0.429849    2.624592   -0.214711
     15          6           0        3.278407   -1.080540   -0.511129
     16          1           0        4.083627   -1.666085   -0.060899
     17          1           0        2.946163   -1.607221   -1.409623
     18          1           0        3.733516   -0.124851   -0.784767
 ---------------------------------------------------------------------
 Rotational constants (GHZ):      2.1260638      0.8344186      0.6423834
 Standard basis: Aug-CC-pVTZ (5D, 7F)
 There are   664 symmetry adapted cartesian basis functions of A   symmetry.
 There are   579 symmetry adapted basis functions of A   symmetry.
   579 basis functions,   843 primitive gaussians,   664 cartesian basis functions
    34 alpha electrons       34 beta electrons
       nuclear repulsion energy       352.4494840021 Hartrees.
 NAtoms=   18 NActive=   18 NUniq=   18 SFac= 1.00D+00 NAtFMM=   60 NAOKFM=F Big=F
 Integral buffers will be    131072 words long.
 Raffenetti 2 integral format.
 Two-electron integral symmetry is turned on.
 One-electron integrals computed using PRISM.
 NBasis=   579 RedAO= T EigKep=  3.42D-06  NBF=   579
 NBsUse=   579 1.00D-06 EigRej= -1.00D+00 NBFU=   579
 ExpMin= 2.53D-02 ExpMax= 4.56D+05 ExpMxC= 1.44D+03 IAcc=3 IRadAn=         5 AccDes= 0.00D+00
 Harris functional with IExCor= 1009 and IRadAn=       5 diagonalized for initial guess.
 HarFok:  IExCor= 1009 AccDes= 0.00D+00 IRadAn=         5 IDoV= 1 UseB2=F ITyADJ=14
 ICtDFT=  3500011 ScaDFX=  1.000000  1.000000  1.000000  1.000000
 FoFCou: FMM=F IPFlag=           0 FMFlag=      100000 FMFlg1=           0
         NFxFlg=           0 DoJE=T BraDBF=F KetDBF=T FulRan=T
         wScrn=  0.000000 ICntrl=     500 IOpCl=  0 I1Cent=   200000004 NGrid=           0
         NMat0=    1 NMatS0=      1 NMatT0=    0 NMatD0=    1 NMtDS0=    0 NMtDT0=    0
 Petite list used in FoFCou.
 Requested convergence on RMS density matrix=1.00D-08 within 128 cycles.
 Requested convergence on MAX density matrix=1.00D-06.
 Requested convergence on             energy=1.00D-06.
 No special actions if energy rises.
 SCF Done:  E(RM06) =  -757.094616712     A.U. after   16 cycles
            NFock= 16  Conv=0.81D-08     -V/T= 2.0042

 **********************************************************************

            Population analysis using the SCF density.

 **********************************************************************

 Orbital symmetries:
       Occupied  (A) (A) (A) (A) (A) (A) (A) (A) (A) (A) (A) (A)
                 (A) (A) (A) (A) (A) (A) (A) (A) (A) (A) (A) (A)
                 (A) (A) (A) (A) (A) (A) (A) (A) (A) (A)
       Virtual   (A) (A) (A) (A) (A) (A) (A) (A) (A) (A) (A) (A)
                 (A) (A) (A) (A) (A) (A) (A) (A) (A) (A) (A) (A)
                 (A) (A) (A) (A) (A) (A) (A) (A) (A) (A) (A) (A)
                 (A) (A) (A) (A) (A) (A) (A) (A) (A) (A) (A) (A)
                 (A) (A) (A) (A) (A) (A) (A) (A) (A) (A) (A) (A)
                 (A) (A) (A) (A) (A) (A) (A) (A) (A) (A) (A) (A)
                 (A) (A) (A) (A) (A) (A) (A) (A) (A) (A) (A) (A)
                 (A) (A) (A) (A) (A) (A) (A) (A) (A) (A) (A) (A)
                 (A) (A) (A) (A) (A) (A) (A) (A) (A) (A) (A) (A)
                 (A) (A) (A) (A) (A) (A) (A) (A) (A) (A) (A) (A)
                 (A) (A) (A) (A) (A) (A) (A) (A) (A) (A) (A) (A)
                 (A) (A) (A) (A) (A) (A) (A) (A) (A) (A) (A) (A)
                 (A) (A) (A) (A) (A) (A) (A) (A) (A) (A) (A) (A)
                 (A) (A) (A) (A) (A) (A) (A) (A) (A) (A) (A) (A)
                 (A) (A) (A) (A) (A) (A) (A) (A) (A) (A) (A) (A)
                 (A) (A) (A) (A) (A) (A) (A) (A) (A) (A) (A) (A)
                 (A) (A) (A) (A) (A) (A) (A) (A) (A) (A) (A) (A)
                 (A) (A) (A) (A) (A) (A) (A) (A) (A) (A) (A) (A)
                 (A) (A) (A) (A) (A) (A) (A) (A) (A) (A) (A) (A)
                 (A) (A) (A) (A) (A) (A) (A) (A) (A) (A) (A) (A)
                 (A) (A) (A) (A) (A) (A) (A) (A) (A) (A) (A) (A)
                 (A) (A) (A) (A) (A) (A) (A) (A) (A) (A) (A) (A)
                 (A) (A) (A) (A) (A) (A) (A) (A) (A) (A) (A) (A)
                 (A) (A) (A) (A) (A) (A) (A) (A) (A) (A) (A) (A)
                 (A) (A) (A) (A) (A) (A) (A) (A) (A) (A) (A) (A)
                 (A) (A) (A) (A) (A) (A) (A) (A) (A) (A) (A) (A)
                 (A) (A) (A) (A) (A) (A) (A) (A) (A) (A) (A) (A)
                 (A) (A) (A) (A) (A) (A) (A) (A) (A) (A) (A) (A)
                 (A) (A) (A) (A) (A) (A) (A) (A) (A) (A) (A) (A)
                 (A) (A) (A) (A) (A) (A) (A) (A) (A) (A) (A) (A)
                 (A) (A) (A) (A) (A) (A) (A) (A) (A) (A) (A) (A)
                 (A) (A) (A) (A) (A) (A) (A) (A) (A) (A) (A) (A)
                 (A) (A) (A) (A) (A) (A) (A) (A) (A) (A) (A) (A)
                 (A) (A) (A) (A) (A) (A) (A) (A) (A) (A) (A) (A)
                 (A) (A) (A) (A) (A) (A) (A) (A) (A) (A) (A) (A)
                 (A) (A) (A) (A) (A) (A) (A) (A) (A) (A) (A) (A)
                 (A) (A) (A) (A) (A) (A) (A) (A) (A) (A) (A) (A)
                 (A) (A) (A) (A) (A) (A) (A) (A) (A) (A) (A) (A)
                 (A) (A) (A) (A) (A) (A) (A) (A) (A) (A) (A) (A)
                 (A) (A) (A) (A) (A) (A) (A) (A) (A) (A) (A) (A)
                 (A) (A) (A) (A) (A) (A) (A) (A) (A) (A) (A) (A)
                 (A) (A) (A) (A) (A) (A) (A) (A) (A) (A) (A) (A)
                 (A) (A) (A) (A) (A) (A) (A) (A) (A) (A) (A) (A)
                 (A) (A) (A) (A) (A) (A) (A) (A) (A) (A) (A) (A)
                 (A) (A) (A) (A) (A) (A) (A) (A) (A) (A) (A) (A)
                 (A) (A) (A) (A) (A)
 The electronic state is 1-A.
 Alpha  occ. eigenvalues -- -101.48040 -24.50375 -10.19034 -10.13086 -10.12947
 Alpha  occ. eigenvalues --  -10.12206 -10.10927  -9.32960  -7.03678  -7.03520
 Alpha  occ. eigenvalues --   -7.03507  -0.90990  -0.72295  -0.66586  -0.57454
 Alpha  occ. eigenvalues --   -0.56009  -0.49388  -0.48000  -0.38188  -0.35852
 Alpha  occ. eigenvalues --   -0.33777  -0.32646  -0.29399  -0.27874  -0.25368
 Alpha  occ. eigenvalues --   -0.24643  -0.23011  -0.21419  -0.16904  -0.16268
 Alpha  occ. eigenvalues --   -0.15289  -0.09924  -0.09624  -0.09526
 Alpha virt. eigenvalues --    0.03878   0.05662   0.06178   0.06818   0.06988
 Alpha virt. eigenvalues --    0.08037   0.08436   0.08576   0.09558   0.10109
 Alpha virt. eigenvalues --    0.10744   0.11240   0.11501   0.12975   0.13172
 Alpha virt. eigenvalues --    0.13455   0.14417   0.15151   0.16059   0.16183
 Alpha virt. eigenvalues --    0.16463   0.16931   0.17340   0.17792   0.18165
 Alpha virt. eigenvalues --    0.18929   0.19225   0.19354   0.20505   0.20966
 Alpha virt. eigenvalues --    0.21304   0.22360   0.22647   0.23297   0.23995
 Alpha virt. eigenvalues --    0.24692   0.25416   0.26130   0.26781   0.27062
 Alpha virt. eigenvalues --    0.28338   0.28932   0.29537   0.29774   0.30471
 Alpha virt. eigenvalues --    0.31169   0.31246   0.32162   0.32655   0.33183
 Alpha virt. eigenvalues --    0.33908   0.34348   0.34624   0.35000   0.35110
 Alpha virt. eigenvalues --    0.35572   0.36127   0.36475   0.36615   0.37230
 Alpha virt. eigenvalues --    0.37606   0.38093   0.38602   0.38942   0.39375
 Alpha virt. eigenvalues --    0.39646   0.40243   0.40361   0.40825   0.40920
 Alpha virt. eigenvalues --    0.41546   0.42378   0.42781   0.43362   0.43551
 Alpha virt. eigenvalues --    0.43936   0.44671   0.45493   0.45814   0.46030
 Alpha virt. eigenvalues --    0.46484   0.47166   0.47706   0.47895   0.48767
 Alpha virt. eigenvalues --    0.49402   0.50221   0.50268   0.50985   0.51371
 Alpha virt. eigenvalues --    0.51524   0.52392   0.52989   0.53618   0.54409
 Alpha virt. eigenvalues --    0.55015   0.55491   0.55776   0.56205   0.56914
 Alpha virt. eigenvalues --    0.57230   0.58049   0.58710   0.59108   0.59496
 Alpha virt. eigenvalues --    0.59971   0.61187   0.61728   0.62908   0.64118
 Alpha virt. eigenvalues --    0.64357   0.65170   0.66162   0.66810   0.67539
 Alpha virt. eigenvalues --    0.68641   0.69512   0.71119   0.72274   0.72910
 Alpha virt. eigenvalues --    0.73406   0.73896   0.74796   0.75292   0.75620
 Alpha virt. eigenvalues --    0.76686   0.78402   0.78625   0.79161   0.79642
 Alpha virt. eigenvalues --    0.79988   0.80232   0.80916   0.81078   0.82032
 Alpha virt. eigenvalues --    0.82478   0.82886   0.83978   0.84790   0.85124
 Alpha virt. eigenvalues --    0.85945   0.86508   0.87298   0.88397   0.88798
 Alpha virt. eigenvalues --    0.89039   0.90048   0.90630   0.91374   0.92411
 Alpha virt. eigenvalues --    0.93126   0.93620   0.94062   0.94505   0.95522
 Alpha virt. eigenvalues --    0.96111   0.96701   0.97936   0.98042   0.98730
 Alpha virt. eigenvalues --    0.99221   1.00150   1.00807   1.01260   1.02060
 Alpha virt. eigenvalues --    1.02445   1.03511   1.04272   1.04699   1.05398
 Alpha virt. eigenvalues --    1.05965   1.06412   1.06982   1.07557   1.08050
 Alpha virt. eigenvalues --    1.08644   1.09466   1.10169   1.10750   1.11318
 Alpha virt. eigenvalues --    1.11492   1.12699   1.13227   1.13846   1.15074
 Alpha virt. eigenvalues --    1.15583   1.15783   1.16546   1.17190   1.17225
 Alpha virt. eigenvalues --    1.18733   1.19117   1.19477   1.20835   1.21308
 Alpha virt. eigenvalues --    1.21894   1.22728   1.24348   1.25176   1.26237
 Alpha virt. eigenvalues --    1.27006   1.27108   1.28685   1.29088   1.29894
 Alpha virt. eigenvalues --    1.30408   1.31808   1.32516   1.34815   1.34967
 Alpha virt. eigenvalues --    1.35688   1.37163   1.37368   1.38512   1.39321
 Alpha virt. eigenvalues --    1.39834   1.40688   1.41323   1.42626   1.44252
 Alpha virt. eigenvalues --    1.44797   1.45905   1.46688   1.47467   1.48106
 Alpha virt. eigenvalues --    1.49097   1.49656   1.50819   1.51035   1.52896
 Alpha virt. eigenvalues --    1.53371   1.53578   1.54968   1.55610   1.55952
 Alpha virt. eigenvalues --    1.56240   1.58393   1.59599   1.60132   1.60377
 Alpha virt. eigenvalues --    1.61225   1.61444   1.62827   1.62903   1.63461
 Alpha virt. eigenvalues --    1.63960   1.65133   1.65293   1.66109   1.66650
 Alpha virt. eigenvalues --    1.66984   1.69139   1.69959   1.70386   1.70528
 Alpha virt. eigenvalues --    1.71434   1.72474   1.73302   1.73827   1.74680
 Alpha virt. eigenvalues --    1.76420   1.76826   1.77313   1.78057   1.79583
 Alpha virt. eigenvalues --    1.80610   1.81918   1.83832   1.84539   1.85614
 Alpha virt. eigenvalues --    1.86559   1.87980   1.89356   1.89632   1.90897
 Alpha virt. eigenvalues --    1.92363   1.93397   1.94326   1.95646   1.98081
 Alpha virt. eigenvalues --    2.00148   2.00541   2.01400   2.03460   2.04083
 Alpha virt. eigenvalues --    2.05891   2.06853   2.07286   2.08049   2.08882
 Alpha virt. eigenvalues --    2.10368   2.11213   2.12680   2.13725   2.14755
 Alpha virt. eigenvalues --    2.15160   2.17147   2.19927   2.20230   2.20884
 Alpha virt. eigenvalues --    2.23028   2.24739   2.25031   2.28658   2.29239
 Alpha virt. eigenvalues --    2.30439   2.31064   2.33932   2.36097   2.37007
 Alpha virt. eigenvalues --    2.41165   2.43075   2.44374   2.47975   2.48604
 Alpha virt. eigenvalues --    2.50276   2.52610   2.54061   2.57351   2.58993
 Alpha virt. eigenvalues --    2.60840   2.65937   2.68268   2.69387   2.72222
 Alpha virt. eigenvalues --    2.77863   2.79529   2.84967   2.85332   2.89435
 Alpha virt. eigenvalues --    2.91422   2.93653   2.96319   2.98647   3.00566
 Alpha virt. eigenvalues --    3.00724   3.01652   3.02995   3.03272   3.05521
 Alpha virt. eigenvalues --    3.06894   3.09024   3.10088   3.12406   3.13565
 Alpha virt. eigenvalues --    3.14593   3.14930   3.17217   3.18208   3.18258
 Alpha virt. eigenvalues --    3.20304   3.21275   3.22612   3.23128   3.24993
 Alpha virt. eigenvalues --    3.26279   3.27371   3.28301   3.30312   3.31061
 Alpha virt. eigenvalues --    3.32192   3.33633   3.34109   3.35290   3.36350
 Alpha virt. eigenvalues --    3.37426   3.39026   3.39851   3.41061   3.42426
 Alpha virt. eigenvalues --    3.43839   3.45428   3.46720   3.48592   3.49016
 Alpha virt. eigenvalues --    3.50167   3.51151   3.52096   3.52887   3.54370
 Alpha virt. eigenvalues --    3.56254   3.59386   3.60809   3.61335   3.61840
 Alpha virt. eigenvalues --    3.65131   3.65639   3.67312   3.67963   3.68992
 Alpha virt. eigenvalues --    3.69566   3.69853   3.72289   3.75375   3.75655
 Alpha virt. eigenvalues --    3.76507   3.77679   3.79127   3.79881   3.82277
 Alpha virt. eigenvalues --    3.84155   3.85295   3.86964   3.89069   3.91298
 Alpha virt. eigenvalues --    3.92711   3.93843   3.95571   3.96193   3.97654
 Alpha virt. eigenvalues --    3.98715   4.00990   4.01979   4.03266   4.03740
 Alpha virt. eigenvalues --    4.05337   4.08011   4.08150   4.09957   4.11240
 Alpha virt. eigenvalues --    4.13353   4.15401   4.17029   4.18163   4.20264
 Alpha virt. eigenvalues --    4.21347   4.24181   4.25859   4.27222   4.30320
 Alpha virt. eigenvalues --    4.31941   4.35126   4.37092   4.38308   4.40444
 Alpha virt. eigenvalues --    4.41102   4.43914   4.44744   4.46684   4.47346
 Alpha virt. eigenvalues --    4.48085   4.50728   4.51606   4.53138   4.53806
 Alpha virt. eigenvalues --    4.55193   4.55699   4.59188   4.61993   4.64136
 Alpha virt. eigenvalues --    4.65681   4.67449   4.69153   4.69860   4.71963
 Alpha virt. eigenvalues --    4.72558   4.74669   4.78512   4.80177   4.83768
 Alpha virt. eigenvalues --    4.84596   4.86156   4.87248   4.89915   4.91436
 Alpha virt. eigenvalues --    4.93354   4.94585   4.95391   4.97671   4.99681
 Alpha virt. eigenvalues --    5.01254   5.03496   5.06457   5.07334   5.08288
 Alpha virt. eigenvalues --    5.09525   5.10281   5.12010   5.13081   5.13997
 Alpha virt. eigenvalues --    5.16293   5.18418   5.20245   5.23967   5.25917
 Alpha virt. eigenvalues --    5.26340   5.30747   5.30996   5.32895   5.34824
 Alpha virt. eigenvalues --    5.36850   5.37689   5.40215   5.41552   5.43989
 Alpha virt. eigenvalues --    5.45352   5.50967   5.51510   5.54441   5.58928
 Alpha virt. eigenvalues --    5.59285   5.60964   5.64626   5.68862   5.71002
 Alpha virt. eigenvalues --    5.73016   5.77180   5.78540   5.80869   5.82624
 Alpha virt. eigenvalues --    5.85728   5.88107   5.89780   5.97629   5.99916
 Alpha virt. eigenvalues --    6.04578   6.08929   6.21551   6.28118   6.35824
 Alpha virt. eigenvalues --    6.39735   6.50005   6.50180   6.53965   6.56449
 Alpha virt. eigenvalues --    6.60276   6.78082   8.71786   8.76140   8.78466
 Alpha virt. eigenvalues --    8.85208   8.87901   9.01878   9.15117   9.23193
 Alpha virt. eigenvalues --    9.27051   9.28178   9.36228   9.38820  13.48538
 Alpha virt. eigenvalues --   16.45927  17.38187  17.62338  18.26094  18.87839
          Condensed to atoms (all electrons):
               1          2          3          4          5          6
     1  C   11.435801  -0.989804   0.131152  -1.440803   0.420258  -0.160752
     2  H   -0.989804   0.832919  -0.376727   0.178820  -0.150821   0.080033
     3  H    0.131152  -0.376727   0.619742  -0.013091   0.138343  -0.122683
     4  C   -1.440803   0.178820  -0.013091  11.380381  -0.806980  -0.103701
     5  H    0.420258  -0.150821   0.138343  -0.806980   0.763318  -0.220369
     6  H   -0.160752   0.080033  -0.122683  -0.103701  -0.220369   0.532404
     7  C   -0.436092   0.120460  -0.045596  -1.709204   0.078356  -0.007237
     8  H   -0.094964  -0.011778   0.020333   0.032850   0.143326  -0.062240
     9  H   -0.080820   0.062139  -0.126249   0.113428  -0.209426   0.184528
    10  C   -0.448274   0.030259  -0.023988  -0.008036  -0.047836   0.063320
    11  H    0.022589   0.002722   0.003928   0.003575   0.037533  -0.055362
    12  H   -0.009332   0.000336   0.000497   0.073910  -0.074133   0.043822
    13  Cl  -0.202634   0.061455  -0.001956  -0.033715  -0.026028   0.045118
    14  F   -0.129035   0.025790   0.005828   0.045753   0.004508   0.003108
    15  C   -0.157778   0.002443  -0.006538  -0.171612   0.021860   0.002894
    16  H    0.009722   0.000794   0.000001  -0.012640  -0.000243   0.000227
    17  H    0.003371   0.000291   0.001532   0.028015   0.003354  -0.005337
    18  H    0.001609   0.001221   0.001162   0.034116  -0.002805   0.002224
               7          8          9         10         11         12
     1  C   -0.436092  -0.094964  -0.080820  -0.448274   0.022589  -0.009332
     2  H    0.120460  -0.011778   0.062139   0.030259   0.002722   0.000336
     3  H   -0.045596   0.020333  -0.126249  -0.023988   0.003928   0.000497
     4  C   -1.709204   0.032850   0.113428  -0.008036   0.003575   0.073910
     5  H    0.078356   0.143326  -0.209426  -0.047836   0.037533  -0.074133
     6  H   -0.007237  -0.062240   0.184528   0.063320  -0.055362   0.043822
     7  C   12.042367  -0.708755  -0.605892  -2.016379   0.156657   0.185538
     8  H   -0.708755   1.011514  -0.371528  -0.114340   0.145842  -0.160082
     9  H   -0.605892  -0.371528   1.049249   0.048138  -0.176537   0.168766
    10  C   -2.016379  -0.114340   0.048138  12.377826  -0.111024  -0.389969
    11  H    0.156657   0.145842  -0.176537  -0.111024   0.680789  -0.210334
    12  H    0.185538  -0.160082   0.168766  -0.389969  -0.210334   0.654746
    13  Cl   0.061724   0.018161   0.011260   0.018594   0.001401   0.002439
    14  F   -0.088089  -0.012047   0.073966   0.040332   0.002066   0.003091
    15  C    0.079825   0.078671  -0.035390  -2.498603  -0.228232  -0.210139
    16  H    0.019351   0.011357   0.002183   0.117789  -0.000066  -0.006114
    17  H    0.001633   0.007168  -0.060515   0.219589   0.078411  -0.047013
    18  H   -0.009121  -0.062704   0.018858   0.181985  -0.053021   0.090615
              13         14         15         16         17         18
     1  C   -0.202634  -0.129035  -0.157778   0.009722   0.003371   0.001609
     2  H    0.061455   0.025790   0.002443   0.000794   0.000291   0.001221
     3  H   -0.001956   0.005828  -0.006538   0.000001   0.001532   0.001162
     4  C   -0.033715   0.045753  -0.171612  -0.012640   0.028015   0.034116
     5  H   -0.026028   0.004508   0.021860  -0.000243   0.003354  -0.002805
     6  H    0.045118   0.003108   0.002894   0.000227  -0.005337   0.002224
     7  C    0.061724  -0.088089   0.079825   0.019351   0.001633  -0.009121
     8  H    0.018161  -0.012047   0.078671   0.011357   0.007168  -0.062704
     9  H    0.011260   0.073966  -0.035390   0.002183  -0.060515   0.018858
    10  C    0.018594   0.040332  -2.498603   0.117789   0.219589   0.181985
    11  H    0.001401   0.002066  -0.228232  -0.000066   0.078411  -0.053021
    12  H    0.002439   0.003091  -0.210139  -0.006114  -0.047013   0.090615
    13  Cl  17.840200   0.008483  -0.006588  -0.000271  -0.001751  -0.000429
    14  F    0.008483   9.674051  -0.000115  -0.000049  -0.000822  -0.001317
    15  C   -0.006588  -0.000115  12.802242  -0.039444  -0.318684  -0.285984
    16  H   -0.000271  -0.000049  -0.039444   0.389550  -0.100701  -0.092008
    17  H   -0.001751  -0.000822  -0.318684  -0.100701   0.393791   0.027667
    18  H   -0.000429  -0.001317  -0.285984  -0.092008   0.027667   0.391508
 Mulliken charges:
               1
     1  C   -1.874214
     2  H    1.129446
     3  H    0.794310
     4  C   -1.591067
     5  H    0.927785
     6  H    0.780003
     7  C   -1.119547
     8  H    1.129216
     9  H    0.933842
    10  C   -1.439383
    11  H    0.699062
    12  H    0.883356
    13  Cl  -0.795464
    14  F   -0.655504
    15  C   -3.028830
    16  H    0.700564
    17  H    0.770000
    18  H    0.756424
 Sum of Mulliken charges =  -1.00000
 Mulliken charges with hydrogens summed into heavy atoms:
               1
     1  C    0.049542
     4  C    0.116721
     7  C    0.943510
    10  C    0.143036
    13  Cl  -0.795464
    14  F   -0.655504
    15  C   -0.801841
 Electronic spatial extent (au):  <R**2>=           1744.2366
 Charge=             -1.0000 electrons
 Dipole moment (field-independent basis, Debye):
    X=              7.7036    Y=             -2.1634    Z=              1.4808  Tot=              8.1374
 Quadrupole moment (field-independent basis, Debye-Ang):
   XX=            -92.2277   YY=            -78.3023   ZZ=            -56.2396
   XY=            -14.0643   XZ=             -1.2062   YZ=              1.0243
 Traceless Quadrupole moment (field-independent basis, Debye-Ang):
   XX=            -16.6379   YY=             -2.7124   ZZ=             19.3503
   XY=            -14.0643   XZ=             -1.2062   YZ=              1.0243
 Octapole moment (field-independent basis, Debye-Ang**2):
  XXX=            103.0523  YYY=            -32.5351  ZZZ=              0.1383  XYY=             -1.2627
  XXY=             42.9569  XXZ=              8.7108  XZZ=              3.1179  YZZ=              6.3681
  YYZ=              6.8331  XYZ=              1.7182
 Hexadecapole moment (field-independent basis, Debye-Ang**3):
 XXXX=          -2095.5323 YYYY=           -715.6339 ZZZZ=           -168.3414 XXXY=            -73.9696
 XXXZ=             -5.2204 YYYX=            -41.6647 YYYZ=             10.1701 ZZZX=             -0.9993
 ZZZY=             -1.0742 XXYY=           -415.2576 XXZZ=           -324.2200 YYZZ=           -124.3476
 XXYZ=            -10.9997 YYXZ=             -1.3138 ZZXY=             -2.0818
 N-N= 3.524494840021D+02 E-N=-2.505082280784D+03  KE= 7.539231586967D+02
 Calling FoFJK, ICntrl=      2127 FMM=F ISym2X=0 I1Cent= 0 IOpClX= 0 NMat=1 NMatS=1 NMatT=0.
 ***** Axes restored to original set *****
 -------------------------------------------------------------------
 Center     Atomic                   Forces (Hartrees/Bohr)
 Number     Number              X              Y              Z
 -------------------------------------------------------------------
      1        6           0.017274798    0.004867164    0.006000175
      2        1           0.008861359   -0.015373354   -0.007812518
      3        1          -0.008126679    0.006443397   -0.004496227
      4        6           0.064632038    0.017855499   -0.008280338
      5        1          -0.020062540   -0.001062159   -0.002395668
      6        1           0.001227010    0.015839167    0.006826568
      7        6          -0.041834968    0.006637587    0.009755096
      8        1          -0.021000366   -0.018005942   -0.011043488
      9        1           0.001596251   -0.004281815   -0.012160860
     10        6          -0.017744918   -0.001941013    0.017351734
     11        1           0.008381590    0.000507179    0.000561019
     12        1           0.004363670    0.001043843    0.000141938
     13       17           0.001001237    0.003405859   -0.002226872
     14        9           0.006525646   -0.014695799    0.005818622
     15        6          -0.006958952   -0.001963784   -0.003229097
     16        1          -0.000918781   -0.002229466    0.000897568
     17        1          -0.000033390    0.002963655   -0.000024882
     18        1           0.002816997   -0.000010018    0.004317230
 -------------------------------------------------------------------
 Cartesian Forces:  Max     0.064632038 RMS     0.013747413

 GradGradGradGradGradGradGradGradGradGradGradGradGradGradGradGradGradGrad
 Berny optimization.
 FormGI is forming the generalized inverse of G from B-inverse, IUseBI=4.
 Internal  Forces:  Max     0.040682308 RMS     0.008549405
 Search for a saddle point.
 Step number   1 out of a maximum of  108
 All quantities printed in internal units (Hartrees-Bohrs-Radians)
 Second derivative matrix not updated -- first step.
 ITU=  0
 LST/QST climbing along tangent vector
     Eigenvalues ---    0.00573   0.00575   0.01136   0.01851   0.02447
     Eigenvalues ---    0.02921   0.03741   0.03749   0.03979   0.03991
     Eigenvalues ---    0.04342   0.04644   0.04953   0.05050   0.05495
     Eigenvalues ---    0.05618   0.05754   0.05827   0.05972   0.07213
     Eigenvalues ---    0.08369   0.08902   0.10930   0.11533   0.11600
     Eigenvalues ---    0.12170   0.15996   0.16000   0.16000   0.16000
     Eigenvalues ---    0.16142   0.18155   0.21882   0.29089   0.30765
     Eigenvalues ---    0.30894   0.30907   0.32134   0.33605   0.34008
     Eigenvalues ---    0.34019   0.34052   0.34432   0.34446   0.34505
     Eigenvalues ---    0.34597   0.34771   0.349791000.000001000.00000
     Eigenvalues --- 1000.000001000.000001000.000001000.000001000.00000
     Eigenvalues --- 1000.000001000.000001000.000001000.000001000.00000
     Eigenvalues --- 1000.000001000.000001000.000001000.000001000.00000
     Eigenvalues --- 1000.000001000.000001000.000001000.000001000.00000
     Eigenvalues --- 1000.000001000.000001000.000001000.000001000.00000
     Eigenvalues --- 1000.000001000.000001000.000001000.000001000.00000
     Eigenvalues --- 1000.000001000.000001000.000001000.000001000.00000
     Eigenvalues --- 1000.000001000.000001000.000001000.000001000.00000
     Eigenvalues --- 1000.000001000.000001000.000001000.000001000.00000
     Eigenvalues --- 1000.000001000.000001000.000001000.000001000.00000
     Eigenvalues --- 1000.000001000.000001000.000001000.000001000.00000
     Eigenvalues --- 1000.000001000.00000
 Eigenvectors required to have negative eigenvalues:
                          D44       D42       D43       D47       D45
   1                    0.33330   0.33330   0.33330   0.33329   0.33329
                          D46       D50       D48       D49       R14
   1                    0.33329   0.33329   0.33329   0.33329  -0.00512
 QST in optimization variable space.
 Eigenvectors 1 and   8 swapped, overlap=  1.0000
                        Tangent   TS vect  // Eig F  Eigenval
   1         R1         0.00051   0.00051   0.00780   0.03749
   2         R2         0.00059   0.00059   0.00021   0.00575
   3         R3        -0.00299  -0.00299  -0.00159   0.01136
   4         R4         0.40964   0.40964   0.00246   0.01851
   5         R5        -0.29997  -0.29997  -0.00349   0.02447
   6         R6         0.04406   0.04406  -0.00281   0.02921
   7         R7         0.00052   0.00052   0.00002   0.03741
   8         R8         0.00097   0.00097  -0.00007   0.00573
   9         R9        -0.00049  -0.00049  -0.00425   0.03979
  10         R10       -0.03116  -0.03116   0.00337   0.03991
  11         R11        0.00077   0.00077  -0.00270   0.04342
  12         R12       -0.00122  -0.00122  -0.00670   0.04644
  13         R13        0.00004   0.00004  -0.00157   0.04953
  14         R14       -0.33754  -0.33754   0.01310   0.05050
  15         R15        0.00048   0.00048   0.00181   0.05495
  16         R16       -0.00084  -0.00084  -0.00170   0.05618
  17         R17       -0.00026  -0.00026   0.00185   0.05754
  18         R18       -0.00012  -0.00012  -0.00383   0.05827
  19         R19       -0.00027  -0.00027  -0.00919   0.05972
  20         R20        0.00059   0.00059  -0.00697   0.07213
  21         A1        -0.00797  -0.00797  -0.00532   0.08369
  22         A2         0.01203   0.01203  -0.00911   0.08902
  23         A3         0.01080   0.01080  -0.00519   0.10930
  24         A4         0.14811   0.14811  -0.00859   0.11533
  25         A5        -0.00799  -0.00799   0.01536   0.11600
  26         A6        -0.10833  -0.10833   0.00167   0.12170
  27         A7        -0.00947  -0.00947  -0.00051   0.15996
  28         A8        -0.08033  -0.08033   0.00082   0.16000
  29         A9         0.03900   0.03900   0.00004   0.16000
  30         A10       -0.18503  -0.18503   0.00041   0.16000
  31         A11       -0.00025  -0.00025  -0.00225   0.16142
  32         A12       -0.00826  -0.00826   0.02297   0.18155
  33         A13        0.00343   0.00343   0.00295   0.21882
  34         A14        0.00306   0.00306  -0.00299   0.29089
  35         A15        0.00918   0.00918  -0.00893   0.30765
  36         A16       -0.00808  -0.00808   0.00256   0.30894
  37         A17        0.11407   0.11407  -0.00007   0.30907
  38         A18       -0.00124  -0.00124   0.00282   0.32134
  39         A19        0.00583   0.00583  -0.00252   0.33605
  40         A20        0.00130   0.00130  -0.00078   0.34008
  41         A21        0.00052   0.00052  -0.00024   0.34019
  42         A22       -0.00384  -0.00384  -0.00065   0.34052
  43         A23       -0.00178  -0.00178  -0.00026   0.34432
  44         A24        0.10405   0.10405  -0.00055   0.34446
  45         A25        0.00309   0.00309   0.00063   0.34505
  46         A26       -0.00439  -0.00439  -0.00316   0.34597
  47         A27       -0.00033  -0.00033   0.01937   0.34771
  48         A28        0.00260   0.00260  -0.00295   0.34979
  49         A29        0.00061   0.00061   0.000001000.00000
  50         A30       -0.00121  -0.00121   0.000001000.00000
  51         A31        0.04204   0.04204   0.000001000.00000
  52         A32       -0.00076  -0.00076   0.000001000.00000
  53         A33       -0.00181  -0.00181   0.000001000.00000
  54         A34        0.00199   0.00199   0.000001000.00000
  55         A35        0.00011   0.00011   0.000001000.00000
  56         A36       -0.00138  -0.00138   0.000001000.00000
  57         A37        0.00185   0.00185   0.000001000.00000
  58         D1        -0.04796  -0.04796   0.000001000.00000
  59         D2         0.17456   0.17456   0.000001000.00000
  60         D3         0.07381   0.07381   0.000001000.00000
  61         D4        -0.23256  -0.23256   0.000001000.00000
  62         D5        -0.23281  -0.23281   0.000001000.00000
  63         D6        -0.24360  -0.24360   0.000001000.00000
  64         D7        -0.00298  -0.00298   0.000001000.00000
  65         D8        -0.00323  -0.00323   0.000001000.00000
  66         D9        -0.01403  -0.01403   0.000001000.00000
  67         D10       -0.17683  -0.17683   0.000001000.00000
  68         D11       -0.17709  -0.17709   0.000001000.00000
  69         D12       -0.18788  -0.18788   0.000001000.00000
  70         D13       -0.01431  -0.01431   0.000001000.00000
  71         D14       -0.01457  -0.01457   0.000001000.00000
  72         D15       -0.02536  -0.02536   0.000001000.00000
  73         D16        0.19700   0.19700   0.000001000.00000
  74         D17        0.19435   0.19435   0.000001000.00000
  75         D18        0.20290   0.20290   0.000001000.00000
  76         D19        0.01961   0.01961   0.000001000.00000
  77         D20        0.02176   0.02176   0.000001000.00000
  78         D21        0.02440   0.02440   0.000001000.00000
  79         D22        0.01397   0.01397   0.000001000.00000
  80         D23        0.01612   0.01612   0.000001000.00000
  81         D24        0.01876   0.01876   0.000001000.00000
  82         D25        0.00874   0.00874   0.000001000.00000
  83         D26        0.01090   0.01090   0.000001000.00000
  84         D27        0.01354   0.01354   0.000001000.00000
  85         D28       -0.05890  -0.05890   0.000001000.00000
  86         D29       -0.14049  -0.14049   0.000001000.00000
  87         D30       -0.14656  -0.14656   0.000001000.00000
  88         D31       -0.14269  -0.14269   0.000001000.00000
  89         D32       -0.00272  -0.00272   0.000001000.00000
  90         D33       -0.00021  -0.00021   0.000001000.00000
  91         D34       -0.00532  -0.00532   0.000001000.00000
  92         D35        0.00089   0.00089   0.000001000.00000
  93         D36        0.00340   0.00340   0.000001000.00000
  94         D37       -0.00171  -0.00171   0.000001000.00000
  95         D38        0.00431   0.00431   0.000001000.00000
  96         D39        0.00682   0.00682   0.000001000.00000
  97         D40        0.00171   0.00171   0.000001000.00000
  98         D41        0.17968   0.17968   0.000001000.00000
  99         D42        0.00087   0.00087   0.000001000.00000
 100         D43       -0.00072  -0.00072   0.000001000.00000
 101         D44        0.00181   0.00181   0.000001000.00000
 102         D45       -0.00311  -0.00311   0.000001000.00000
 103         D46       -0.00471  -0.00471   0.000001000.00000
 104         D47       -0.00218  -0.00218   0.000001000.00000
 105         D48       -0.00584  -0.00584   0.000001000.00000
 106         D49       -0.00744  -0.00744   0.000001000.00000
 107         D50       -0.00490  -0.00490   0.000001000.00000
 RFO step:  Lambda0=3.904938316D-02 Lambda=-1.47533074D-02.
 Linear search not attempted -- option 19 set.
 Maximum step size (   0.300) exceeded in Quadratic search.
    -- Step size scaled by   0.084
 Iteration  1 RMS(Cart)=  0.04253887 RMS(Int)=  0.00251796
 Iteration  2 RMS(Cart)=  0.00157733 RMS(Int)=  0.00080575
 Iteration  3 RMS(Cart)=  0.00000177 RMS(Int)=  0.00080575
 Iteration  4 RMS(Cart)=  0.00000000 RMS(Int)=  0.00080575
 Variable       Old X    -DE/DX   Delta X   Delta X   Delta X     New X
                                 (Linear)    (Quad)   (Total)
    R1        2.04602  -0.00513   0.00000  -0.00096  -0.00065   2.04537
    R2        2.06335  -0.00632   0.00000  -0.00098  -0.00098   2.06236
    R3        2.82453   0.00562   0.00000   0.00221   0.00182   2.82635
    R4        5.35153  -0.01530   0.00000  -0.17995  -0.18059   5.17094
    R5        4.01668  -0.01454   0.00000   0.12064   0.12045   4.13713
    R6        3.59565  -0.00143   0.00000  -0.02062  -0.02058   3.57506
    R7        2.07242  -0.00129   0.00000  -0.00037  -0.00037   2.07205
    R8        2.10505  -0.01177   0.00000  -0.00197  -0.00230   2.10275
    R9        2.74400   0.04068   0.00000   0.00606   0.00671   2.75072
   R10        5.19331  -0.00815   0.00000   0.01079   0.01221   5.20552
   R11        2.11980  -0.00779   0.00000  -0.00193  -0.00193   2.11787
   R12        2.08002  -0.00505   0.00000  -0.00009  -0.00009   2.07994
   R13        2.86191  -0.00013   0.00000  -0.00003  -0.00003   2.86188
   R14        6.96231   0.02017   0.00000   0.15298   0.15241   7.11471
   R15        2.07316  -0.00155   0.00000  -0.00038  -0.00038   2.07278
   R16        2.07297  -0.00049   0.00000   0.00030   0.00030   2.07327
   R17        2.86215   0.00511   0.00000   0.00077   0.00077   2.86292
   R18        2.06486   0.00126   0.00000   0.00020   0.00020   2.06506
   R19        2.06584  -0.00110   0.00000  -0.00001  -0.00001   2.06582
   R20        2.06607  -0.00052   0.00000  -0.00031  -0.00031   2.06576
    A1        1.99130   0.00356   0.00000   0.00511   0.00411   1.99542
    A2        2.23611  -0.00583   0.00000  -0.00728  -0.00848   2.22764
    A3        1.99095   0.00227   0.00000  -0.00661  -0.00715   1.98380
    A4        1.10438   0.00560   0.00000  -0.06096  -0.06103   1.04335
    A5        2.05558   0.00224   0.00000   0.00381   0.00251   2.05808
    A6        1.02333  -0.00545   0.00000   0.04584   0.04746   1.07079
    A7        1.88236  -0.00275   0.00000   0.00184   0.00186   1.88422
    A8        1.60987   0.00341   0.00000   0.03595   0.03578   1.64565
    A9        1.75865  -0.00272   0.00000  -0.01581  -0.01523   1.74342
   A10        1.50406  -0.00602   0.00000   0.07597   0.07708   1.58114
   A11        1.78746  -0.00235   0.00000   0.00232   0.00124   1.78870
   A12        1.99397  -0.00958   0.00000   0.00005  -0.00092   1.99305
   A13        1.70543   0.02689   0.00000   0.00884   0.01041   1.71584
   A14        1.86286   0.00654   0.00000  -0.00067   0.00056   1.86341
   A15        2.13776  -0.00545   0.00000  -0.00807  -0.00839   2.12937
   A16        1.96707  -0.01480   0.00000  -0.00104  -0.00175   1.96532
   A17        1.86768   0.00717   0.00000  -0.04675  -0.04793   1.81975
   A18        1.81978  -0.00990   0.00000   0.00059   0.00069   1.82047
   A19        1.97459  -0.00941   0.00000  -0.00451  -0.00531   1.96929
   A20        1.90091   0.02457   0.00000   0.00340   0.00435   1.90526
   A21        1.69915   0.01404   0.00000   0.00458   0.00521   1.70435
   A22        2.14227  -0.01755   0.00000  -0.00543  -0.00641   2.13586
   A23        1.92151  -0.00508   0.00000   0.00066   0.00059   1.92210
   A24        1.82942   0.00702   0.00000  -0.04547  -0.04703   1.78239
   A25        1.93446  -0.00655   0.00000  -0.00357  -0.00357   1.93089
   A26        1.96846  -0.00368   0.00000   0.00048   0.00048   1.96894
   A27        1.95364   0.00522   0.00000   0.00126   0.00126   1.95491
   A28        1.85866   0.00121   0.00000  -0.00118  -0.00118   1.85748
   A29        1.85236   0.00379   0.00000   0.00170   0.00170   1.85406
   A30        1.89006   0.00034   0.00000   0.00134   0.00134   1.89140
   A31        0.73289  -0.00564   0.00000  -0.01995  -0.02035   0.71253
   A32        1.93849   0.00151   0.00000   0.00107   0.00107   1.93956
   A33        1.94768   0.00035   0.00000   0.00052   0.00052   1.94820
   A34        1.93518  -0.00061   0.00000  -0.00105  -0.00106   1.93412
   A35        1.88015  -0.00064   0.00000  -0.00008  -0.00008   1.88008
   A36        1.83879   0.00188   0.00000   0.00167   0.00167   1.84046
   A37        1.91978  -0.00244   0.00000  -0.00208  -0.00208   1.91770
    D1       -1.72220   0.00271   0.00000   0.02297   0.02282  -1.69937
    D2        1.44116   0.00452   0.00000  -0.07009  -0.06980   1.37136
    D3       -2.85433   0.00722   0.00000  -0.02847  -0.03001  -2.88434
    D4        0.09731  -0.00702   0.00000   0.09235   0.09213   0.18944
    D5        2.10428  -0.00501   0.00000   0.09297   0.09311   2.19740
    D6       -2.09809  -0.01032   0.00000   0.09701   0.09688  -2.00121
    D7       -3.02184  -0.00517   0.00000  -0.00368  -0.00339  -3.02523
    D8       -1.01486  -0.00316   0.00000  -0.00306  -0.00241  -1.01727
    D9        1.06596  -0.00846   0.00000   0.00098   0.00135   1.06731
   D10       -2.05532  -0.01018   0.00000   0.07096   0.07223  -1.98308
   D11       -0.04834  -0.00817   0.00000   0.07157   0.07322   0.02488
   D12        2.03248  -0.01347   0.00000   0.07561   0.07698   2.10946
   D13        1.22065  -0.00100   0.00000   0.00309   0.00356   1.22421
   D14       -3.05556   0.00101   0.00000   0.00371   0.00454  -3.05102
   D15       -0.97474  -0.00429   0.00000   0.00775   0.00830  -0.96644
   D16        0.05205   0.00884   0.00000  -0.07976  -0.07748  -0.02543
   D17        2.01438   0.00509   0.00000  -0.07734  -0.07611   1.93827
   D18       -1.87421  -0.00966   0.00000  -0.09024  -0.08889  -1.96309
   D19       -0.90677  -0.00124   0.00000  -0.01005  -0.01092  -0.91769
   D20        0.91904   0.00636   0.00000  -0.00617  -0.00658   0.91247
   D21        3.06187   0.01132   0.00000  -0.00593  -0.00629   3.05558
   D22       -2.82811  -0.01582   0.00000  -0.01631  -0.01679  -2.84490
   D23       -1.00230  -0.00821   0.00000  -0.01244  -0.01244  -1.01475
   D24        1.14052  -0.00325   0.00000  -0.01220  -0.01216   1.12837
   D25        1.19445  -0.00310   0.00000  -0.00541  -0.00680   1.18765
   D26        3.02026   0.00450   0.00000  -0.00153  -0.00245   3.01780
   D27       -1.12010   0.00947   0.00000  -0.00129  -0.00217  -1.12227
   D28        0.92668   0.01619   0.00000   0.03017   0.02691   0.95358
   D29       -0.12438  -0.00542   0.00000   0.05911   0.05701  -0.06737
   D30       -2.15254   0.00240   0.00000   0.06218   0.06067  -2.09188
   D31        2.04219   0.00659   0.00000   0.06040   0.05899   2.10118
   D32       -1.13878   0.00126   0.00000   0.00227   0.00249  -1.13628
   D33        0.94336  -0.00422   0.00000  -0.00139  -0.00117   0.94219
   D34        3.08004  -0.00256   0.00000   0.00168   0.00190   3.08194
   D35        3.01498   0.00573   0.00000   0.00250   0.00245   3.01743
   D36       -1.18607   0.00025   0.00000  -0.00116  -0.00121  -1.18728
   D37        0.95061   0.00190   0.00000   0.00191   0.00186   0.95247
   D38        1.03562   0.00276   0.00000  -0.00065  -0.00083   1.03480
   D39        3.11776  -0.00272   0.00000  -0.00431  -0.00449   3.11327
   D40       -1.02875  -0.00107   0.00000  -0.00124  -0.00142  -1.03017
   D41       -0.39676   0.00394   0.00000  -0.07718  -0.07684  -0.47360
   D42        3.10953   0.00018   0.00000  -0.00019  -0.00019   3.10934
   D43       -1.07539   0.00063   0.00000   0.00080   0.00080  -1.07459
   D44        1.07126  -0.00271   0.00000  -0.00227  -0.00227   1.06900
   D45        0.99694   0.00272   0.00000   0.00236   0.00236   0.99930
   D46        3.09521   0.00318   0.00000   0.00334   0.00334   3.09855
   D47       -1.04132  -0.00017   0.00000   0.00028   0.00028  -1.04105
   D48       -0.99290  -0.00069   0.00000   0.00226   0.00226  -0.99064
   D49        1.10537  -0.00024   0.00000   0.00324   0.00324   1.10861
   D50       -3.03116  -0.00358   0.00000   0.00018   0.00018  -3.03098
         Item               Value     Threshold  Converged?
 Maximum Force            0.040682     0.000450     NO 
 RMS     Force            0.008549     0.000300     NO 
 Maximum Displacement     0.213655     0.001800     NO 
 RMS     Displacement     0.042504     0.001200     NO 
 Predicted change in Energy= 4.194993D-03
 GradGradGradGradGradGradGradGradGradGradGradGradGradGradGradGradGradGrad

                          Input orientation:                          
 ---------------------------------------------------------------------
 Center     Atomic      Atomic             Coordinates (Angstroms)
 Number     Number       Type             X           Y           Z
 ---------------------------------------------------------------------
      1          6           0        1.042317    0.445716    0.276360
      2          1           0        1.612363    1.285921   -0.098619
      3          1           0        1.149515    0.272282    1.348501
      4          6           0        0.087522   -0.421086   -0.481244
      5          1           0        0.269109   -0.121892   -1.520369
      6          1           0        0.310233   -1.509406   -0.416989
      7          6           0       -1.132455   -0.057037    0.224408
      8          1           0       -0.885126   -0.216959    1.305743
      9          1           0       -1.291084    1.031183    0.269727
     10          6           0       -2.313286   -0.728378   -0.445271
     11          1           0       -2.451129   -0.342763   -1.462825
     12          1           0       -2.188110   -1.814276   -0.539326
     13         17           0        2.593232   -1.645504    1.118405
     14          9           0        0.081939    2.393652    0.000401
     15          6           0       -3.610842   -0.459180    0.288950
     16          1           0       -4.457164   -0.922649   -0.223994
     17          1           0       -3.585117   -0.850831    1.309245
     18          1           0       -3.832038    0.611206    0.307196
 ---------------------------------------------------------------------
                    Distance matrix (angstroms):
                    1          2          3          4          5
     1  C    0.000000
     2  H    1.082362   0.000000
     3  H    1.091355   1.826430   0.000000
     4  C    1.495641   2.320650   2.226332   0.000000
     5  H    2.036729   2.409906   3.026698   1.096482   0.000000
     6  H    2.199814   3.100122   2.644950   1.112730   1.773226
     7  C    2.232732   3.072769   2.565039   1.455617   2.238936
     8  H    2.283376   3.235480   2.093072   2.044758   3.054211
     9  H    2.405738   2.937784   2.774204   2.138598   2.639741
    10  C    3.627578   4.425866   4.026156   2.420662   2.862241
    11  H    3.981285   4.585372   4.609390   2.722937   2.729797
    12  H    4.025987   4.924332   4.365474   2.668868   3.140785
    13  Cl   2.736343   3.322124   2.411465   3.215067   3.832241
    14  F    2.189277   1.891842   2.730806   2.855655   2.945461
    15  C    4.740347   5.520639   4.931398   3.777903   4.294347
    16  H    5.689206   6.460082   5.944363   4.579510   4.965829
    17  H    4.915387   5.793236   4.866176   4.108383   4.836644
    18  H    4.877261   5.501039   5.100496   4.129191   4.549378
                    6          7          8          9         10
     6  H    0.000000
     7  C    2.145254   0.000000
     8  H    2.463149   1.120729   0.000000
     9  H    3.080647   1.100655   1.672122   0.000000
    10  C    2.737454   1.514440   2.316730   2.156890   0.000000
    11  H    3.174894   2.160392   3.183263   2.497032   1.096867
    12  H    2.519847   2.187598   2.766491   3.091256   1.097128
    13  Cl   2.754640   4.147674   3.764944   4.792997   5.230690
    14  F    3.931945   2.744232   3.074805   1.952959   3.960151
    15  C    4.120213   2.511630   2.919258   2.757323   1.514992
    16  H    4.807245   3.464684   3.949373   3.753036   2.164005
    17  H    4.311305   2.796879   2.773402   3.144068   2.170455
    18  H    4.709548   2.782292   3.219820   2.575700   2.160393
                   11         12         13         14         15
    11  H    0.000000
    12  H    1.757094   0.000000
    13  Cl   5.814246   5.063377   0.000000
    14  F    4.005675   4.811558   4.885827   0.000000
    15  C    2.104092   2.132251   6.370706   4.675312   0.000000
    16  H    2.427992   2.458259   7.213365   5.625981   1.092783
    17  H    3.037834   2.509396   6.232168   5.068239   1.093186
    18  H    2.439251   3.049928   6.858199   4.311665   1.093154
                   16         17         18
    16  H    0.000000
    17  H    1.765345   0.000000
    18  H    1.739441   1.789588   0.000000
 Stoichiometry    C5H11ClF(1-)
 Framework group  C1[X(C5H11ClF)]
 Deg. of freedom    48
 Full point group                 C1      NOp   1
 Largest Abelian subgroup         C1      NOp   1
 Largest concise Abelian subgroup C1      NOp   1
                         Standard orientation:                         
 ---------------------------------------------------------------------
 Center     Atomic      Atomic             Coordinates (Angstroms)
 Number     Number       Type             X           Y           Z
 ---------------------------------------------------------------------
      1          6           0       -0.955626    0.918468    0.050629
      2          1           0       -1.270884    1.907233    0.357974
      3          1           0       -1.287489    0.631061   -0.948531
      4          6           0       -0.069666   -0.029855    0.794068
      5          1           0        0.002838    0.438997    1.782599
      6          1           0       -0.510832   -1.039533    0.949278
      7          6           0        1.049658   -0.045362   -0.136359
      8          1           0        0.583795   -0.289681   -1.125962
      9          1           0        1.409207    0.963819   -0.388788
     10          6           0        2.176050   -0.867218    0.454675
     11          1           0        2.569451   -0.389117    1.360088
     12          1           0        1.858022   -1.875083    0.749223
     13         17           0       -3.015448   -0.867435   -0.184443
     14          9           0        0.404367    2.621867   -0.153788
     15          6           0        3.346200   -0.995452   -0.499004
     16          1           0        4.162975   -1.562984   -0.046278
     17          1           0        3.059123   -1.504773   -1.422711
     18          1           0        3.767410   -0.013822   -0.731321
 ---------------------------------------------------------------------
 Rotational constants (GHZ):      2.2168908      0.8162311      0.6363698
 Standard basis: Aug-CC-pVTZ (5D, 7F)
 There are   664 symmetry adapted cartesian basis functions of A   symmetry.
 There are   579 symmetry adapted basis functions of A   symmetry.
   579 basis functions,   843 primitive gaussians,   664 cartesian basis functions
    34 alpha electrons       34 beta electrons
       nuclear repulsion energy       352.2333780983 Hartrees.
 NAtoms=   18 NActive=   18 NUniq=   18 SFac= 1.00D+00 NAtFMM=   60 NAOKFM=F Big=F
 Integral buffers will be    131072 words long.
 Raffenetti 2 integral format.
 Two-electron integral symmetry is turned on.
 One-electron integrals computed using PRISM.
 NBasis=   579 RedAO= T EigKep=  3.51D-06  NBF=   579
 NBsUse=   579 1.00D-06 EigRej= -1.00D+00 NBFU=   579
 Initial guess from the checkpoint file:  "20170630_augccpVTZ_m06_chloroflouropentane_trans.chk"
 B after Tr=     0.000000    0.000000    0.000000
         Rot=    0.999938   -0.010480    0.001034   -0.003615 Ang=  -1.28 deg.
 ExpMin= 2.53D-02 ExpMax= 4.56D+05 ExpMxC= 1.44D+03 IAcc=3 IRadAn=         5 AccDes= 0.00D+00
 Harris functional with IExCor= 1009 and IRadAn=       5 diagonalized for initial guess.
 HarFok:  IExCor= 1009 AccDes= 0.00D+00 IRadAn=         5 IDoV= 1 UseB2=F ITyADJ=14
 ICtDFT=  3500011 ScaDFX=  1.000000  1.000000  1.000000  1.000000
 FoFCou: FMM=F IPFlag=           0 FMFlag=      100000 FMFlg1=           0
         NFxFlg=           0 DoJE=T BraDBF=F KetDBF=T FulRan=T
         wScrn=  0.000000 ICntrl=     500 IOpCl=  0 I1Cent=   200000004 NGrid=           0
[...]
                 (A) (A) (A) (A) (A) (A) (A) (A) (A) (A) (A) (A)
                 (A) (A) (A) (A) (A) (A) (A) (A) (A) (A) (A) (A)
                 (A) (A) (A) (A) (A) (A) (A) (A) (A) (A) (A) (A)
                 (A) (A) (A) (A) (A) (A) (A) (A) (A) (A) (A) (A)
                 (A) (A) (A) (A) (A) (A) (A) (A) (A) (A) (A) (A)
                 (A) (A) (A) (A) (A) (A) (A) (A) (A) (A) (A) (A)
                 (A) (A) (A) (A) (A) (A) (A) (A) (A) (A) (A) (A)
                 (A) (A) (A) (A) (A) (A) (A) (A) (A) (A) (A) (A)
                 (A) (A) (A) (A) (A) (A) (A) (A) (A) (A) (A) (A)
                 (A) (A) (A) (A) (A) (A) (A) (A) (A) (A) (A) (A)
                 (A) (A) (A) (A) (A) (A) (A) (A) (A) (A) (A) (A)
                 (A) (A) (A) (A) (A) (A) (A) (A) (A) (A) (A) (A)
                 (A) (A) (A) (A) (A) (A) (A) (A) (A) (A) (A) (A)
                 (A) (A) (A) (A) (A) (A) (A) (A) (A) (A) (A) (A)
                 (A) (A) (A) (A) (A) (A) (A) (A) (A) (A) (A) (A)
                 (A) (A) (A) (A) (A) (A) (A) (A) (A) (A) (A) (A)
                 (A) (A) (A) (A) (A) (A) (A) (A) (A) (A) (A) (A)
                 (A) (A) (A) (A) (A) (A) (A) (A) (A) (A) (A) (A)
                 (A) (A) (A) (A) (A) (A) (A) (A) (A) (A) (A) (A)
                 (A) (A) (A) (A) (A) (A) (A) (A) (A) (A) (A) (A)
                 (A) (A) (A) (A) (A) (A) (A) (A) (A) (A) (A) (A)
                 (A) (A) (A) (A) (A) (A) (A) (A) (A) (A) (A) (A)
                 (A) (A) (A) (A) (A) (A) (A) (A) (A) (A) (A) (A)
                 (A) (A) (A) (A) (A) (A) (A) (A) (A) (A) (A) (A)
                 (A) (A) (A) (A) (A) (A) (A) (A) (A) (A) (A) (A)
                 (A) (A) (A) (A) (A) (A) (A) (A) (A) (A) (A) (A)
                 (A) (A) (A) (A) (A) (A) (A) (A) (A) (A) (A) (A)
                 (A) (A) (A) (A) (A) (A) (A) (A) (A) (A) (A) (A)
                 (A) (A) (A) (A) (A) (A) (A) (A) (A) (A) (A) (A)
                 (A) (A) (A) (A) (A) (A) (A) (A) (A) (A) (A) (A)
                 (A) (A) (A) (A) (A) (A) (A) (A) (A) (A) (A) (A)
                 (A) (A) (A) (A) (A) (A) (A) (A) (A) (A) (A) (A)
                 (A) (A) (A) (A) (A) (A) (A) (A) (A) (A) (A) (A)
                 (A) (A) (A) (A) (A) (A) (A) (A) (A) (A) (A) (A)
                 (A) (A) (A) (A) (A) (A) (A) (A) (A) (A) (A) (A)
                 (A) (A) (A) (A) (A) (A) (A) (A) (A) (A) (A) (A)
                 (A) (A) (A) (A) (A) (A) (A) (A) (A) (A) (A) (A)
                 (A) (A) (A) (A) (A)
 The electronic state is 1-A.
 Alpha  occ. eigenvalues -- -101.51932 -24.44585 -10.15133 -10.12790 -10.12226
 Alpha  occ. eigenvalues --  -10.10122 -10.09420  -9.36849  -7.07746  -7.07313
 Alpha  occ. eigenvalues --   -7.07310  -0.85587  -0.69840  -0.65303  -0.60985
 Alpha  occ. eigenvalues --   -0.55370  -0.48335  -0.45172  -0.36723  -0.34086
 Alpha  occ. eigenvalues --   -0.31161  -0.30811  -0.29864  -0.25655  -0.25326
 Alpha  occ. eigenvalues --   -0.22166  -0.21519  -0.21329  -0.17097  -0.12766
 Alpha  occ. eigenvalues --   -0.12633  -0.11052  -0.10974  -0.10042
 Alpha virt. eigenvalues --    0.04038   0.05914   0.06299   0.07159   0.08301
 Alpha virt. eigenvalues --    0.08628   0.08785   0.09532   0.10177   0.11066
 Alpha virt. eigenvalues --    0.11227   0.11353   0.12103   0.13259   0.13798
 Alpha virt. eigenvalues --    0.14894   0.15039   0.15413   0.15942   0.16315
 Alpha virt. eigenvalues --    0.16785   0.17108   0.17566   0.18019   0.18370
 Alpha virt. eigenvalues --    0.18772   0.19177   0.20505   0.20787   0.21621
 Alpha virt. eigenvalues --    0.21911   0.22520   0.23239   0.23304   0.24098
 Alpha virt. eigenvalues --    0.25144   0.25785   0.26466   0.26822   0.27745
 Alpha virt. eigenvalues --    0.29029   0.29637   0.30097   0.30775   0.31436
 Alpha virt. eigenvalues --    0.31941   0.32863   0.32895   0.34137   0.34268
 Alpha virt. eigenvalues --    0.34552   0.34717   0.34822   0.35190   0.36016
 Alpha virt. eigenvalues --    0.36082   0.36971   0.37152   0.37501   0.37727
 Alpha virt. eigenvalues --    0.38529   0.38634   0.39137   0.39284   0.39843
 Alpha virt. eigenvalues --    0.40066   0.40538   0.40858   0.41652   0.42164
 Alpha virt. eigenvalues --    0.42612   0.42970   0.43029   0.43300   0.43580
 Alpha virt. eigenvalues --    0.45022   0.45386   0.45767   0.45953   0.46910
 Alpha virt. eigenvalues --    0.47508   0.48018   0.48205   0.48937   0.49140
 Alpha virt. eigenvalues --    0.49850   0.50210   0.50537   0.50736   0.51325
 Alpha virt. eigenvalues --    0.52051   0.52124   0.53458   0.54096   0.54384
 Alpha virt. eigenvalues --    0.55502   0.55780   0.56286   0.57125   0.57590
 Alpha virt. eigenvalues --    0.58294   0.58652   0.59210   0.59942   0.61195
 Alpha virt. eigenvalues --    0.61244   0.61742   0.62436   0.62861   0.64089
 Alpha virt. eigenvalues --    0.64180   0.65830   0.67426   0.68565   0.69121
 Alpha virt. eigenvalues --    0.69428   0.70196   0.71311   0.71929   0.72387
 Alpha virt. eigenvalues --    0.73716   0.74557   0.75087   0.75409   0.76134
 Alpha virt. eigenvalues --    0.77439   0.77641   0.78775   0.79605   0.80134
 Alpha virt. eigenvalues --    0.80736   0.81156   0.81538   0.82156   0.82843
 Alpha virt. eigenvalues --    0.83953   0.84349   0.84656   0.85112   0.86631
 Alpha virt. eigenvalues --    0.87133   0.87897   0.88252   0.88879   0.89654
 Alpha virt. eigenvalues --    0.89955   0.90838   0.91590   0.91906   0.92495
 Alpha virt. eigenvalues --    0.93091   0.93728   0.94257   0.94875   0.95283
 Alpha virt. eigenvalues --    0.96207   0.97030   0.98671   0.99437   1.00058
 Alpha virt. eigenvalues --    1.00321   1.00697   1.01301   1.02439   1.03109
 Alpha virt. eigenvalues --    1.03868   1.04328   1.05231   1.05491   1.06227
 Alpha virt. eigenvalues --    1.06516   1.07681   1.08099   1.08881   1.09220
 Alpha virt. eigenvalues --    1.09530   1.10081   1.10870   1.11244   1.12547
 Alpha virt. eigenvalues --    1.13149   1.13740   1.14849   1.15536   1.16085
 Alpha virt. eigenvalues --    1.16801   1.17408   1.17818   1.18244   1.18813
 Alpha virt. eigenvalues --    1.19325   1.20778   1.21381   1.21958   1.22640
 Alpha virt. eigenvalues --    1.23311   1.24618   1.24910   1.26012   1.26730
 Alpha virt. eigenvalues --    1.28272   1.28566   1.30205   1.30497   1.31228
 Alpha virt. eigenvalues --    1.32905   1.33966   1.34603   1.36408   1.37018
 Alpha virt. eigenvalues --    1.37329   1.39040   1.39847   1.41226   1.41878
 Alpha virt. eigenvalues --    1.42042   1.43167   1.43823   1.45021   1.46057
 Alpha virt. eigenvalues --    1.46983   1.48095   1.49493   1.50119   1.50383
 Alpha virt. eigenvalues --    1.51283   1.51835   1.52616   1.53789   1.53950
 Alpha virt. eigenvalues --    1.55303   1.56144   1.56718   1.57144   1.57725
 Alpha virt. eigenvalues --    1.58408   1.59405   1.60022   1.61121   1.62019
 Alpha virt. eigenvalues --    1.62789   1.63379   1.63603   1.64104   1.64497
 Alpha virt. eigenvalues --    1.65665   1.66160   1.66699   1.67527   1.68290
 Alpha virt. eigenvalues --    1.69032   1.69874   1.70607   1.71319   1.72510
 Alpha virt. eigenvalues --    1.74278   1.74614   1.75715   1.76365   1.77536
 Alpha virt. eigenvalues --    1.78444   1.79707   1.80165   1.81553   1.81683
 Alpha virt. eigenvalues --    1.83071   1.84222   1.84670   1.85198   1.86489
 Alpha virt. eigenvalues --    1.88183   1.89110   1.90664   1.91863   1.92574
 Alpha virt. eigenvalues --    1.93429   1.95447   1.95716   1.97335   1.97571
 Alpha virt. eigenvalues --    1.98826   1.99843   2.01372   2.02654   2.03889
 Alpha virt. eigenvalues --    2.05582   2.06494   2.07429   2.07580   2.09422
 Alpha virt. eigenvalues --    2.12140   2.12571   2.13143   2.14245   2.15948
 Alpha virt. eigenvalues --    2.16195   2.17226   2.19465   2.19986   2.20781
 Alpha virt. eigenvalues --    2.22175   2.24684   2.25252   2.27740   2.29437
 Alpha virt. eigenvalues --    2.30400   2.31748   2.33095   2.36321   2.37277
 Alpha virt. eigenvalues --    2.39777   2.43057   2.48100   2.50291   2.52391
 Alpha virt. eigenvalues --    2.54671   2.56015   2.57611   2.60424   2.63338
 Alpha virt. eigenvalues --    2.63826   2.67190   2.70287   2.71901   2.76506
 Alpha virt. eigenvalues --    2.79915   2.83767   2.86896   2.89008   2.94431
 Alpha virt. eigenvalues --    2.97695   2.98410   2.99427   3.00292   3.01205
 Alpha virt. eigenvalues --    3.02967   3.03102   3.03663   3.07522   3.07776
 Alpha virt. eigenvalues --    3.09974   3.11161   3.12362   3.13981   3.15109
 Alpha virt. eigenvalues --    3.16370   3.17941   3.18773   3.20626   3.21266
 Alpha virt. eigenvalues --    3.22245   3.23335   3.24558   3.25736   3.26190
 Alpha virt. eigenvalues --    3.27413   3.28784   3.31456   3.31722   3.33522
 Alpha virt. eigenvalues --    3.34769   3.35121   3.36447   3.37101   3.37792
 Alpha virt. eigenvalues --    3.39508   3.40556   3.42211   3.44397   3.45481
 Alpha virt. eigenvalues --    3.46513   3.47779   3.48620   3.49911   3.51159
 Alpha virt. eigenvalues --    3.53942   3.55088   3.55959   3.57838   3.59744
 Alpha virt. eigenvalues --    3.60066   3.60730   3.62305   3.63093   3.64267
 Alpha virt. eigenvalues --    3.66002   3.67149   3.67643   3.69549   3.71125
 Alpha virt. eigenvalues --    3.73453   3.75482   3.75898   3.76898   3.78579
 Alpha virt. eigenvalues --    3.79728   3.81368   3.82921   3.84215   3.85599
 Alpha virt. eigenvalues --    3.87269   3.88298   3.91048   3.92855   3.93838
 Alpha virt. eigenvalues --    3.94636   3.96239   3.97838   3.98468   4.00080
 Alpha virt. eigenvalues --    4.00398   4.02208   4.03662   4.05859   4.08253
 Alpha virt. eigenvalues --    4.10223   4.11592   4.13105   4.14082   4.14977
 Alpha virt. eigenvalues --    4.17188   4.18445   4.19586   4.20326   4.23557
 Alpha virt. eigenvalues --    4.25370   4.26229   4.28541   4.30752   4.32571
 Alpha virt. eigenvalues --    4.36282   4.37129   4.37870   4.39064   4.40333
 Alpha virt. eigenvalues --    4.42508   4.44663   4.46052   4.47410   4.49138
 Alpha virt. eigenvalues --    4.51011   4.51811   4.53739   4.54331   4.55567
 Alpha virt. eigenvalues --    4.58864   4.59754   4.61479   4.63538   4.65366
 Alpha virt. eigenvalues --    4.68376   4.69889   4.71388   4.72323   4.74702
 Alpha virt. eigenvalues --    4.76985   4.80192   4.80762   4.83415   4.84125
 Alpha virt. eigenvalues --    4.85925   4.89043   4.89450   4.93284   4.94138
 Alpha virt. eigenvalues --    4.96324   4.97458   4.98993   4.99120   5.01476
 Alpha virt. eigenvalues --    5.03308   5.04968   5.06937   5.08225   5.08946
 Alpha virt. eigenvalues --    5.11271   5.12814   5.14155   5.16865   5.18120
 Alpha virt. eigenvalues --    5.18964   5.20049   5.22310   5.23751   5.25819
 Alpha virt. eigenvalues --    5.26648   5.29262   5.32169   5.34137   5.35467
 Alpha virt. eigenvalues --    5.39576   5.40248   5.42587   5.45767   5.46278
 Alpha virt. eigenvalues --    5.49729   5.50457   5.52261   5.55423   5.56458
 Alpha virt. eigenvalues --    5.60173   5.64012   5.65322   5.66687   5.70565
 Alpha virt. eigenvalues --    5.73230   5.73884   5.75696   5.80672   5.82128
 Alpha virt. eigenvalues --    5.83707   5.85748   5.87444   5.88723   5.99550
 Alpha virt. eigenvalues --    6.01516   6.11932   6.21138   6.31244   6.34637
 Alpha virt. eigenvalues --    6.40694   6.46384   6.48156   6.49861   6.57786
 Alpha virt. eigenvalues --    6.73746   7.20006   8.71023   8.73332   8.83697
 Alpha virt. eigenvalues --    8.87423   8.98497   9.02521   9.12536   9.23561
 Alpha virt. eigenvalues --    9.30397   9.33195   9.36466   9.42411  13.79780
 Alpha virt. eigenvalues --   17.00610  17.30378  17.56623  18.05747  18.57002
          Condensed to atoms (all electrons):
               1          2          3          4          5          6
     1  C   12.320702  -0.467193  -0.290771  -1.617418  -0.072839  -0.315387
     2  H   -0.467193   0.769291  -0.469222   0.217879  -0.025228  -0.053898
     3  H   -0.290771  -0.469222   0.772980  -0.052341   0.037043   0.041954
     4  C   -1.617418   0.217879  -0.052341  11.609538  -0.415717  -0.707446
     5  H   -0.072839  -0.025228   0.037043  -0.415717   0.621703  -0.180642
     6  H   -0.315387  -0.053898   0.041954  -0.707446  -0.180642   0.801929
     7  C    0.096256   0.069929   0.054910  -2.045918   0.128638   0.280482
     8  H   -0.106842   0.020418  -0.093624   0.079333   0.103890  -0.090620
     9  H   -0.177820  -0.002336  -0.071908   0.089933  -0.085107   0.107808
    10  C   -0.316512   0.007950  -0.002828   0.328810  -0.024480   0.009805
    11  H    0.020775   0.000416   0.002554   0.064577   0.023130  -0.067068
    12  H    0.038916   0.000206   0.003485   0.064177  -0.050261  -0.019730
    13  Cl  -0.989668   0.031134   0.078046   0.107955  -0.025365   0.067491
    14  F   -0.237154  -0.000659   0.020446   0.083739   0.040248   0.013431
    15  C   -0.159019   0.003362  -0.014434  -0.197675   0.022122   0.042213
    16  H    0.008057   0.000784  -0.000258  -0.025991  -0.001783   0.000118
    17  H    0.000443   0.000014   0.002340   0.040269   0.005461  -0.001634
    18  H    0.004911   0.000376   0.001487   0.024053  -0.001680   0.004265
               7          8          9         10         11         12
     1  C    0.096256  -0.106842  -0.177820  -0.316512   0.020775   0.038916
     2  H    0.069929   0.020418  -0.002336   0.007950   0.000416   0.000206
     3  H    0.054910  -0.093624  -0.071908  -0.002828   0.002554   0.003485
     4  C   -2.045918   0.079333   0.089933   0.328810   0.064577   0.064177
     5  H    0.128638   0.103890  -0.085107  -0.024480   0.023130  -0.050261
     6  H    0.280482  -0.090620   0.107808   0.009805  -0.067068  -0.019730
     7  C   11.342821  -0.724829  -0.572768  -1.954699   0.160888   0.140248
     8  H   -0.724829   0.792699  -0.000448   0.033943   0.080719  -0.042997
     9  H   -0.572768  -0.000448   0.829046  -0.002433  -0.078160   0.072181
    10  C   -1.954699   0.033943  -0.002433  11.792602  -0.308324  -0.256223
    11  H    0.160888   0.080719  -0.078160  -0.308324   0.504931  -0.043460
    12  H    0.140248  -0.042997   0.072181  -0.256223  -0.043460   0.549271
    13  Cl   0.124228   0.012351   0.013391   0.049966   0.005287   0.005289
    14  F   -0.008656   0.011173   0.018767   0.016205   0.000814  -0.000220
    15  C    0.173238   0.032514   0.085120  -2.573885  -0.209312  -0.288388
    16  H    0.010601   0.008750   0.013689   0.158880  -0.015751  -0.015254
    17  H   -0.018788  -0.020503  -0.068277   0.225565   0.060353  -0.026719
    18  H    0.001109  -0.056896  -0.016111   0.213195  -0.021739   0.063984
              13         14         15         16         17         18
     1  C   -0.989668  -0.237154  -0.159019   0.008057   0.000443   0.004911
     2  H    0.031134  -0.000659   0.003362   0.000784   0.000014   0.000376
     3  H    0.078046   0.020446  -0.014434  -0.000258   0.002340   0.001487
     4  C    0.107955   0.083739  -0.197675  -0.025991   0.040269   0.024053
     5  H   -0.025365   0.040248   0.022122  -0.001783   0.005461  -0.001680
     6  H    0.067491   0.013431   0.042213   0.000118  -0.001634   0.004265
     7  C    0.124228  -0.008656   0.173238   0.010601  -0.018788   0.001109
     8  H    0.012351   0.011173   0.032514   0.008750  -0.020503  -0.056896
     9  H    0.013391   0.018767   0.085120   0.013689  -0.068277  -0.016111
    10  C    0.049966   0.016205  -2.573885   0.158880   0.225565   0.213195
    11  H    0.005287   0.000814  -0.209312  -0.015751   0.060353  -0.021739
    12  H    0.005289  -0.000220  -0.288388  -0.015254  -0.026719   0.063984
    13  Cl  18.233424   0.043866  -0.006384  -0.000005  -0.003947  -0.000184
    14  F    0.043866   9.742387   0.000276   0.000032   0.000049  -0.001002
    15  C   -0.006384   0.000276  12.688193  -0.075851  -0.287562  -0.274245
    16  H   -0.000005   0.000032  -0.075851   0.396771  -0.098424  -0.097294
    17  H   -0.003947   0.000049  -0.287562  -0.098424   0.405127   0.037031
    18  H   -0.000184  -0.001002  -0.274245  -0.097294   0.037031   0.383527
 Mulliken charges:
               1
     1  C   -1.739437
     2  H    0.896778
     3  H    0.980140
     4  C   -1.647758
     5  H    0.900867
     6  H    1.066927
     7  C   -1.257691
     8  H    0.960969
     9  H    0.845432
    10  C   -1.397537
    11  H    0.819372
    12  H    0.805495
    13  Cl  -0.746875
    14  F   -0.743744
    15  C   -2.960281
    16  H    0.732928
    17  H    0.749203
    18  H    0.735214
 Sum of Mulliken charges =  -1.00000
 Mulliken charges with hydrogens summed into heavy atoms:
               1
     1  C    0.137481
     4  C    0.320035
     7  C    0.548710
    10  C    0.227329
    13  Cl  -0.746875
    14  F   -0.743744
    15  C   -0.742937
 Electronic spatial extent (au):  <R**2>=           1605.5929
 Charge=             -1.0000 electrons
 Dipole moment (field-independent basis, Debye):
    X=              6.4182    Y=             -3.4940    Z=              1.1386  Tot=              7.3957
 Quadrupole moment (field-independent basis, Debye-Ang):
   XX=            -73.0045   YY=            -86.2451   ZZ=            -56.0494
   XY=             -1.0479   XZ=             -1.3473   YZ=              2.1238
 Traceless Quadrupole moment (field-independent basis, Debye-Ang):
   XX=             -1.2382   YY=            -14.4788   ZZ=             15.7170
   XY=             -1.0479   XZ=             -1.3473   YZ=              2.1238
 Octapole moment (field-independent basis, Debye-Ang**2):
  XXX=              5.9988  YYY=            -47.0698  ZZZ=             -1.9872  XYY=             35.6964
  XXY=             22.5094  XXZ=              4.3953  XZZ=             -3.1500  YZZ=              4.7046
  YYZ=              7.7524  XYZ=             -2.5967
 Hexadecapole moment (field-independent basis, Debye-Ang**3):
 XXXX=          -1597.9833 YYYY=           -788.1640 ZZZZ=           -161.0197 XXXY=            -42.9919
 XXXZ=              5.8740 YYYX=             39.4222 YYYZ=             17.2035 ZZZX=              1.5015
 ZZZY=             -4.1774 XXYY=           -396.5162 XXZZ=           -275.6881 YYZZ=           -127.4061
 XXYZ=             -1.9162 YYXZ=             -7.9704 ZZXY=             -4.6479
 N-N= 3.632771259706D+02 E-N=-2.527271909980D+03  KE= 7.539440643502D+02
 1\1\GINC-NODE0057\FTS\RM06\Aug-CC-pVTZ\C5H11Cl1F1(1-)\GRAHA682\11-Jul-
 2017\0\\# opt=qst2 aug-cc-pvtz geom=connectivity m06\\1-chloro-1-flour
 o-pentane reactant\\-1,1\C,1.2500181172,0.3858552573,0.289665897\H,2.2
 063034176,0.4813124467,-0.1888045222\H,1.0780043326,0.9997554229,1.153
 2896102\C,0.1005675091,-0.1961026031,-0.4583456471\H,0.0116604777,0.38
 87272368,-1.3772570547\H,0.3197673471,-1.2349842846,-0.7241904978\C,-1
 .194831016,-0.118503714,0.3179792588\H,-1.073364019,-0.6405892672,1.27
 52394486\H,-1.3910761256,0.9353787918,0.5478026271\C,-2.3712273014,-0.
 7045067372,-0.4344711778\H,-2.4731849397,-0.190668977,-1.3972959385\H,
 -2.1602713953,-1.7537075453,-0.673565069\Cl,1.8644413827,-1.324104969,
 1.5098429206\F,0.9103555989,2.2536353864,-0.5821473886\C,-3.6684294437
 ,-0.6060913296,0.341688055\H,-4.5140811809,-1.0341455071,-0.2015488882
 \H,-3.5870892253,-1.1284376001,1.2986541941\H,-3.9076855361,0.43717699
 22,0.5637621726\\Version=ES64L-G09RevD.01\State=1-A\HF=-757.1474268\RM
 SD=3.071e-09\RMSF=6.901e-06\Dipole=-2.4848967,-1.5062479,-0.1513105\Qu
 adrupole=-0.1161914,-6.5514341,6.6676256,-1.2033404,-2.9612861,8.76492
 71\PG=C01 [X(C5H11Cl1F1)]\\@


 THE PROBLEM WITH THE LADDER OF SUCCESS IS YOU CAN'T
 CLIMB IT WHILE YOU'RE TWIDDLING YOUR THUMBS.
 Job cpu time:       3 days 18 hours 42 minutes  4.3 seconds.
 File lengths (MBytes):  RWF=    198 Int=      0 D2E=      0 Chk=     22 Scr=      1
 Normal termination of Gaussian 09 at Tue Jul 11 00:50:52 2017.
325871.55user 652.79system 11:23:10elapsed 796%CPU (0avgtext+0avgdata 633376maxresident)k
1258040inputs+31278312outputs (805major+348078426minor)pagefaults 0swaps
