 Entering Gaussian System, Link 0=g09
 Initial command:
 /panfs/roc/msisoft/gaussian/g09.e01_mesabi/g09/l1.exe "/scratch/graha682/3881881.mesabim3.msi.umn.edu/Gau-23552.inp" -scrdir="/scratch/graha682/3881881.mesabim3.msi.umn.edu/"
 Entering Link 1 = /panfs/roc/msisoft/gaussian/g09.e01_mesabi/g09/l1.exe PID=     23553.
  
 Copyright (c) 1988,1990,1992,1993,1995,1998,2003,2009,2015,
            Gaussian, Inc.  All Rights Reserved.
  
 This is part of the Gaussian(R) 09 program.  It is based on
 the Gaussian(R) 03 system (copyright 2003, Gaussian, Inc.),
 the Gaussian(R) 98 system (copyright 1998, Gaussian, Inc.),
 the Gaussian(R) 94 system (copyright 1995, Gaussian, Inc.),
 the Gaussian 92(TM) system (copyright 1992, Gaussian, Inc.),
 the Gaussian 90(TM) system (copyright 1990, Gaussian, Inc.),
 the Gaussian 88(TM) system (copyright 1988, Gaussian, Inc.),
 the Gaussian 86(TM) system (copyright 1986, Carnegie Mellon
 University), and the Gaussian 82(TM) system (copyright 1983,
 Carnegie Mellon University). Gaussian is a federally registered
 trademark of Gaussian, Inc.
  
 This software contains proprietary and confidential information,
 including trade secrets, belonging to Gaussian, Inc.
  
 This software is provided under written license and may be
 used, copied, transmitted, or stored only in accord with that
 written license.
  
 The following legend is applicable only to US Government
 contracts under FAR:
  
                    RESTRICTED RIGHTS LEGEND
  
 Use, reproduction and disclosure by the US Government is
 subject to restrictions as set forth in subparagraphs (a)
 and (c) of the Commercial Computer Software - Restricted
 Rights clause in FAR 52.227-19.
  
 Gaussian, Inc.
 340 Quinnipiac St., Bldg. 40, Wallingford CT 06492
  
  
 ---------------------------------------------------------------
 Warning -- This program may not be used in any manner that
 competes with the business of Gaussian, Inc. or will provide
 assistance to any competitor of Gaussian, Inc.  The licensee
 of this program is prohibited from giving any competitor of
 Gaussian, Inc. access to this program.  By using this program,
 the user acknowledges that Gaussian, Inc. is engaged in the
 business of creating and licensing software in the field of
 computational chemistry and represents and warrants to the
 licensee that it is not a competitor of Gaussian, Inc. and that
 it will not use this program in any manner prohibited above.
 ---------------------------------------------------------------
  

 Cite this work as:
 Gaussian 09, Revision E.01,
 M. J. Frisch, G. W. Trucks, H. B. Schlegel, G. E. Scuseria, 
 M. A. Robb, J. R. Cheeseman, G. Scalmani, V. Barone, B. Mennucci, 
 G. A. Petersson, H. Nakatsuji, M. Caricato, X. Li, H. P. Hratchian, 
 A. F. Izmaylov, J. Bloino, G. Zheng, J. L. Sonnenberg, M. Hada, 
 M. Ehara, K. Toyota, R. Fukuda, J. Hasegawa, M. Ishida, T. Nakajima, 
 Y. Honda, O. Kitao, H. Nakai, T. Vreven, J. A. Montgomery, Jr., 
 J. E. Peralta, F. Ogliaro, M. Bearpark, J. J. Heyd, E. Brothers, 
 K. N. Kudin, V. N. Staroverov, T. Keith, R. Kobayashi, J. Normand, 
 K. Raghavachari, A. Rendell, J. C. Burant, S. S. Iyengar, J. Tomasi, 
 M. Cossi, N. Rega, J. M. Millam, M. Klene, J. E. Knox, J. B. Cross, 
 V. Bakken, C. Adamo, J. Jaramillo, R. Gomperts, R. E. Stratmann, 
 O. Yazyev, A. J. Austin, R. Cammi, C. Pomelli, J. W. Ochterski, 
 R. L. Martin, K. Morokuma, V. G. Zakrzewski, G. A. Voth, 
 P. Salvador, J. J. Dannenberg, S. Dapprich, A. D. Daniels, 
 O. Farkas, J. B. Foresman, J. V. Ortiz, J. Cioslowski, 
 and D. J. Fox, Gaussian, Inc., Wallingford CT, 2013.
 
 ******************************************
 Gaussian 09:  ES64L-G09RevE.01 30-Nov-2015
                 7-Jul-2017 
 ******************************************
 %LindaWorkers=in-cn0146
 %NProcShared=24
 Will use up to   24 processors via shared memory.
 %Mem=59800mb
 %chk=20170630_augccpVTZ_ccsdt_chloropentane.chk
 SetLPE:  input flags=" -workerwait 900 -opt "Tsnet.Node.lindarsharg: ssh " "
 SetLPE:    new flags=" -workerwait 900 -opt "Tsnet.Node.lindarsharg: ssh "  -nodelist 'in-cn0146'"
 Will use up to    1 processors via Linda.
 --------------------------------------------
 # opt freq aug-cc-pvtz geom=connectivity m06
 --------------------------------------------
 1/14=-1,18=20,19=15,26=3,38=1,57=2/1,3;
 2/9=110,12=2,17=6,18=5,40=1/2;
 3/5=16,6=1,7=10,11=2,16=1,25=1,30=1,71=1,74=-54/1,2,3;
 4//1;
 5/5=2,38=5/2;
 6/7=2,8=2,9=2,10=2,28=1/1;
 7//1,2,3,16;
 1/14=-1,18=20,19=15,26=3/3(2);
 2/9=110/2;
 99//99;
 2/9=110/2;
 3/5=16,6=1,7=10,11=2,16=1,25=1,30=1,71=1,74=-54/1,2,3;
 4/5=5,16=3,69=1/1;
 5/5=2,38=5/2;
 7//1,2,3,16;
 1/14=-1,18=20,19=15,26=3/3(-5);
 2/9=110/2;
 6/7=2,8=2,9=2,10=2,19=2,28=1/1;
 99/9=1/99;
 ---------------
 1chloro-pentane
 ---------------
 Symbolic Z-matrix:
 Charge =  0 Multiplicity = 1
 C                    -5.5638    1.88427   0. 
 H                    -5.20713   2.38867   0.87365 
 H                    -5.20713   2.38867  -0.87365 
 C                    -5.05048   0.43234   0. 
 H                    -5.40715  -0.07206   0.87365 
 H                    -5.40716  -0.07206  -0.87365 
 C                    -3.51048   0.43232  0. 
 H                    -3.15381   0.93672  -0.87366 
 H                    -3.15381   0.93672   0.87365 
 C                    -2.99717  -1.01961  0. 
 H                    -3.35384  -1.52401   0.87365 
 H                    -3.35384  -1.52401  -0.87365 
 Cl                   -7.3238    1.88429   0. 
 C                    -1.45717  -1.01963  -0.00001 
 H                    -1.10051  -2.02844   0.00195 
 H                    -1.1005   -0.51693  -0.87464 
 H                    -1.10049  -0.51353   0.87266 
 

 GradGradGradGradGradGradGradGradGradGradGradGradGradGradGradGradGradGrad
 Berny optimization.
 Initialization pass.
                           ----------------------------
                           !    Initial Parameters    !
                           ! (Angstroms and Degrees)  !
 --------------------------                            --------------------------
 ! Name  Definition              Value          Derivative Info.                !
 --------------------------------------------------------------------------------
 ! R1    R(1,2)                  1.07           estimate D2E/DX2                !
 ! R2    R(1,3)                  1.07           estimate D2E/DX2                !
 ! R3    R(1,4)                  1.54           estimate D2E/DX2                !
 ! R4    R(1,13)                 1.76           estimate D2E/DX2                !
 ! R5    R(4,5)                  1.07           estimate D2E/DX2                !
 ! R6    R(4,6)                  1.07           estimate D2E/DX2                !
 ! R7    R(4,7)                  1.54           estimate D2E/DX2                !
 ! R8    R(7,8)                  1.07           estimate D2E/DX2                !
 ! R9    R(7,9)                  1.07           estimate D2E/DX2                !
 ! R10   R(7,10)                 1.54           estimate D2E/DX2                !
 ! R11   R(10,11)                1.07           estimate D2E/DX2                !
 ! R12   R(10,12)                1.07           estimate D2E/DX2                !
 ! R13   R(10,14)                1.54           estimate D2E/DX2                !
 ! R14   R(14,15)                1.07           estimate D2E/DX2                !
 ! R15   R(14,16)                1.07           estimate D2E/DX2                !
 ! R16   R(14,17)                1.07           estimate D2E/DX2                !
 ! A1    A(2,1,3)              109.4713         estimate D2E/DX2                !
 ! A2    A(2,1,4)              109.4712         estimate D2E/DX2                !
 ! A3    A(2,1,13)             109.4712         estimate D2E/DX2                !
 ! A4    A(3,1,4)              109.4712         estimate D2E/DX2                !
 ! A5    A(3,1,13)             109.4712         estimate D2E/DX2                !
 ! A6    A(4,1,13)             109.4712         estimate D2E/DX2                !
 ! A7    A(1,4,5)              109.4712         estimate D2E/DX2                !
 ! A8    A(1,4,6)              109.4712         estimate D2E/DX2                !
 ! A9    A(1,4,7)              109.4712         estimate D2E/DX2                !
 ! A10   A(5,4,6)              109.4712         estimate D2E/DX2                !
 ! A11   A(5,4,7)              109.4713         estimate D2E/DX2                !
 ! A12   A(6,4,7)              109.4712         estimate D2E/DX2                !
 ! A13   A(4,7,8)              109.4712         estimate D2E/DX2                !
 ! A14   A(4,7,9)              109.4712         estimate D2E/DX2                !
 ! A15   A(4,7,10)             109.4712         estimate D2E/DX2                !
 ! A16   A(8,7,9)              109.4712         estimate D2E/DX2                !
 ! A17   A(8,7,10)             109.4713         estimate D2E/DX2                !
 ! A18   A(9,7,10)             109.4712         estimate D2E/DX2                !
 ! A19   A(7,10,11)            109.4712         estimate D2E/DX2                !
 ! A20   A(7,10,12)            109.4712         estimate D2E/DX2                !
 ! A21   A(7,10,14)            109.4712         estimate D2E/DX2                !
 ! A22   A(11,10,12)           109.4713         estimate D2E/DX2                !
 ! A23   A(11,10,14)           109.4712         estimate D2E/DX2                !
 ! A24   A(12,10,14)           109.4712         estimate D2E/DX2                !
 ! A25   A(10,14,15)           109.4712         estimate D2E/DX2                !
 ! A26   A(10,14,16)           109.4712         estimate D2E/DX2                !
 ! A27   A(10,14,17)           109.4712         estimate D2E/DX2                !
 ! A28   A(15,14,16)           109.4713         estimate D2E/DX2                !
 ! A29   A(15,14,17)           109.4712         estimate D2E/DX2                !
 ! A30   A(16,14,17)           109.4712         estimate D2E/DX2                !
 ! D1    D(2,1,4,5)             59.9999         estimate D2E/DX2                !
 ! D2    D(2,1,4,6)            179.9999         estimate D2E/DX2                !
 ! D3    D(2,1,4,7)            -60.0002         estimate D2E/DX2                !
 ! D4    D(3,1,4,5)            179.9999         estimate D2E/DX2                !
 ! D5    D(3,1,4,6)            -60.0001         estimate D2E/DX2                !
 ! D6    D(3,1,4,7)             59.9999         estimate D2E/DX2                !
 ! D7    D(13,1,4,5)           -60.0001         estimate D2E/DX2                !
 ! D8    D(13,1,4,6)            59.9999         estimate D2E/DX2                !
 ! D9    D(13,1,4,7)           179.9999         estimate D2E/DX2                !
 ! D10   D(1,4,7,8)            -60.0            estimate D2E/DX2                !
 ! D11   D(1,4,7,9)             60.0            estimate D2E/DX2                !
 ! D12   D(1,4,7,10)           179.9999         estimate D2E/DX2                !
 ! D13   D(5,4,7,8)            180.0            estimate D2E/DX2                !
 ! D14   D(5,4,7,9)            -60.0            estimate D2E/DX2                !
 ! D15   D(5,4,7,10)            60.0            estimate D2E/DX2                !
 ! D16   D(6,4,7,8)             60.0            estimate D2E/DX2                !
 ! D17   D(6,4,7,9)            180.0            estimate D2E/DX2                !
 ! D18   D(6,4,7,10)           -60.0001         estimate D2E/DX2                !
 ! D19   D(4,7,10,11)          -60.0001         estimate D2E/DX2                !
 ! D20   D(4,7,10,12)           59.9999         estimate D2E/DX2                !
 ! D21   D(4,7,10,14)          179.9999         estimate D2E/DX2                !
 ! D22   D(8,7,10,11)          179.9999         estimate D2E/DX2                !
 ! D23   D(8,7,10,12)          -60.0            estimate D2E/DX2                !
 ! D24   D(8,7,10,14)           59.9999         estimate D2E/DX2                !
 ! D25   D(9,7,10,11)           59.9999         estimate D2E/DX2                !
 ! D26   D(9,7,10,12)          179.9999         estimate D2E/DX2                !
 ! D27   D(9,7,10,14)          -60.0001         estimate D2E/DX2                !
 ! D28   D(7,10,14,15)         179.8887         estimate D2E/DX2                !
 ! D29   D(7,10,14,16)         -60.1113         estimate D2E/DX2                !
 ! D30   D(7,10,14,17)          59.8887         estimate D2E/DX2                !
 ! D31   D(11,10,14,15)         59.8887         estimate D2E/DX2                !
 ! D32   D(11,10,14,16)        179.8888         estimate D2E/DX2                !
 ! D33   D(11,10,14,17)        -60.1112         estimate D2E/DX2                !
 ! D34   D(12,10,14,15)        -60.1113         estimate D2E/DX2                !
 ! D35   D(12,10,14,16)         59.8887         estimate D2E/DX2                !
 ! D36   D(12,10,14,17)        179.8887         estimate D2E/DX2                !
 --------------------------------------------------------------------------------
 Trust Radius=3.00D-01 FncErr=1.00D-07 GrdErr=1.00D-06
 Number of steps in this run=     92 maximum allowed number of steps=    102.
 GradGradGradGradGradGradGradGradGradGradGradGradGradGradGradGradGradGrad

                          Input orientation:                          
 ---------------------------------------------------------------------
 Center     Atomic      Atomic             Coordinates (Angstroms)
 Number     Number       Type             X           Y           Z
 ---------------------------------------------------------------------
      1          6           0       -5.563798    1.884273    0.000000
      2          1           0       -5.207126    2.388671    0.873652
      3          1           0       -5.207126    2.388671   -0.873652
      4          6           0       -5.050483    0.432341    0.000000
      5          1           0       -5.407154   -0.072057    0.873653
      6          1           0       -5.407157   -0.072059   -0.873650
      7          6           0       -3.510483    0.432323   -0.000004
      8          1           0       -3.153813    0.936720   -0.873657
      9          1           0       -3.153808    0.936723    0.873646
     10          6           0       -2.997167   -1.019610   -0.000002
     11          1           0       -3.353836   -1.524006    0.873652
     12          1           0       -3.353843   -1.524010   -0.873651
     13         17           0       -7.323798    1.884295    0.000000
     14          6           0       -1.457167   -1.019627   -0.000008
     15          1           0       -1.100512   -2.028435    0.001952
     16          1           0       -1.100498   -0.516928   -0.874640
     17          1           0       -1.100491   -0.513531    0.872660
 ---------------------------------------------------------------------
                    Distance matrix (angstroms):
                    1          2          3          4          5
     1  C    0.000000
     2  H    1.070000   0.000000
     3  H    1.070000   1.747303   0.000000
     4  C    1.540000   2.148263   2.148263   0.000000
     5  H    2.148263   2.468844   3.024610   1.070000   0.000000
     6  H    2.148263   3.024610   2.468847   1.070000   1.747303
     7  C    2.514809   2.732978   2.732976   1.540000   2.148263
     8  H    2.732977   3.062245   2.514808   2.148263   3.024610
     9  H    2.732977   2.514810   3.062240   2.148263   2.468847
    10  C    3.875581   4.154945   4.154944   2.514809   2.732977
    11  H    4.154945   4.329402   4.668704   2.732978   2.514810
    12  H    4.154945   4.668704   4.329403   2.732977   3.062242
    13  Cl   1.760000   2.344774   2.344774   2.697431   2.874736
    14  C    5.029618   5.142175   5.142173   3.875581   4.154945
    15  H    5.935504   6.093846   6.094406   4.653782   4.809827
    16  H    5.143132   5.325731   5.030596   4.155537   4.669231
    17  H    5.141217   5.028640   5.323234   4.154352   4.329231
                    6          7          8          9         10
     6  H    0.000000
     7  C    2.148263   0.000000
     8  H    2.468845   1.070000   0.000000
     9  H    3.024610   1.070000   1.747303   0.000000
    10  C    2.732978   1.540000   2.148263   2.148263   0.000000
    11  H    3.062245   2.148263   3.024610   2.468845   1.070000
    12  H    2.514809   2.148263   2.468847   3.024610   1.070000
    13  Cl   2.874734   4.080392   4.364626   4.364627   5.210796
    14  C    4.154944   2.514809   2.732977   2.732977   1.540000
    15  H    4.810539   3.444313   3.711452   3.710530   2.148263
    16  H    4.329576   2.733878   2.515789   3.063606   2.148263
    17  H    4.668176   2.732076   3.060878   2.513831   2.148263
                   11         12         13         14         15
    11  H    0.000000
    12  H    1.747303   0.000000
    13  Cl   5.304751   5.304749   0.000000
    14  C    2.148263   2.148263   6.546001   0.000000
    15  H    2.468153   2.469539   7.351105   1.070000   0.000000
    16  H    3.024609   2.468153   6.727580   1.070000   1.747303
    17  H    2.469539   3.024610   6.726117   1.070000   1.747303
                   16         17
    16  H    0.000000
    17  H    1.747303   0.000000
 Stoichiometry    C5H11Cl
 Framework group  C1[X(C5H11Cl)]
 Deg. of freedom    45
 Full point group                 C1      NOp   1
 Largest Abelian subgroup         C1      NOp   1
 Largest concise Abelian subgroup C1      NOp   1
                         Standard orientation:                         
 ---------------------------------------------------------------------
 Center     Atomic      Atomic             Coordinates (Angstroms)
 Number     Number       Type             X           Y           Z
 ---------------------------------------------------------------------
      1          6           0        1.353275    0.673935   -0.000002
      2          1           0        1.290293    1.288481   -0.873654
      3          1           0        1.290293    1.288481    0.873649
      4          6           0        0.193069   -0.338745   -0.000002
      5          1           0        0.256049   -0.953289   -0.873655
      6          1           0        0.256052   -0.953293    0.873648
      7          6           0       -1.148431    0.417548    0.000002
      8          1           0       -1.211411    1.032092    0.873655
      9          1           0       -1.211414    1.032096   -0.873648
     10          6           0       -2.308637   -0.595132    0.000000
     11          1           0       -2.245657   -1.209675   -0.873654
     12          1           0       -2.245654   -1.209681    0.873649
     13         17           0        2.886417   -0.190399   -0.000002
     14          6           0       -3.650136    0.161161    0.000006
     15          1           0       -4.456253   -0.542452   -0.001954
     16          1           0       -3.713949    0.774225    0.874638
     17          1           0       -3.712287    0.777188   -0.872662
 ---------------------------------------------------------------------
 Rotational constants (GHZ):     14.7805640      0.8120309      0.7882118
 Standard basis: Aug-CC-pVTZ (5D, 7F)
 There are   609 symmetry adapted cartesian basis functions of A   symmetry.
 There are   533 symmetry adapted basis functions of A   symmetry.
   533 basis functions,   771 primitive gaussians,   609 cartesian basis functions
    29 alpha electrons       29 beta electrons
       nuclear repulsion energy       286.1033245647 Hartrees.
 NAtoms=   17 NActive=   17 NUniq=   17 SFac= 1.00D+00 NAtFMM=   60 NAOKFM=F Big=F
 Integral buffers will be    131072 words long.
 Raffenetti 2 integral format.
 Two-electron integral symmetry is turned on.
 One-electron integrals computed using PRISM.
 NBasis=   533 RedAO= T EigKep=  6.52D-06  NBF=   533
 NBsUse=   533 1.00D-06 EigRej= -1.00D+00 NBFU=   533
 ExpMin= 2.53D-02 ExpMax= 4.56D+05 ExpMxC= 1.44D+03 IAcc=3 IRadAn=         5 AccDes= 0.00D+00
 Harris functional with IExCor= 1009 and IRadAn=       5 diagonalized for initial guess.
 HarFok:  IExCor= 1009 AccDes= 0.00D+00 IRadAn=         5 IDoV= 1 UseB2=F ITyADJ=14
 ICtDFT=  3500011 ScaDFX=  1.000000  1.000000  1.000000  1.000000
 FoFCou: FMM=F IPFlag=           0 FMFlag=      100000 FMFlg1=           0
         NFxFlg=           0 DoJE=T BraDBF=F KetDBF=T FulRan=T
         wScrn=  0.000000 ICntrl=     500 IOpCl=  0 I1Cent=   200000004 NGrid=           0
         NMat0=    1 NMatS0=      1 NMatT0=    0 NMatD0=    1 NMtDS0=    0 NMtDT0=    0
 Petite list used in FoFCou.
 Requested convergence on RMS density matrix=1.00D-08 within 128 cycles.
 Requested convergence on MAX density matrix=1.00D-06.
 Requested convergence on             energy=1.00D-06.
 No special actions if energy rises.
 SCF Done:  E(RM06) =  -657.264380100     A.U. after   13 cycles
            NFock= 13  Conv=0.59D-08     -V/T= 2.0037

 **********************************************************************

            Population analysis using the SCF density.

 **********************************************************************

 Orbital symmetries:
       Occupied  (A) (A) (A) (A) (A) (A) (A) (A) (A) (A) (A) (A)
                 (A) (A) (A) (A) (A) (A) (A) (A) (A) (A) (A) (A)
                 (A) (A) (A) (A) (A)
       Virtual   (A) (A) (A) (A) (A) (A) (A) (A) (A) (A) (A) (A)
                 (A) (A) (A) (A) (A) (A) (A) (A) (A) (A) (A) (A)
                 (A) (A) (A) (A) (A) (A) (A) (A) (A) (A) (A) (A)
                 (A) (A) (A) (A) (A) (A) (A) (A) (A) (A) (A) (A)
                 (A) (A) (A) (A) (A) (A) (A) (A) (A) (A) (A) (A)
                 (A) (A) (A) (A) (A) (A) (A) (A) (A) (A) (A) (A)
                 (A) (A) (A) (A) (A) (A) (A) (A) (A) (A) (A) (A)
                 (A) (A) (A) (A) (A) (A) (A) (A) (A) (A) (A) (A)
                 (A) (A) (A) (A) (A) (A) (A) (A) (A) (A) (A) (A)
                 (A) (A) (A) (A) (A) (A) (A) (A) (A) (A) (A) (A)
                 (A) (A) (A) (A) (A) (A) (A) (A) (A) (A) (A) (A)
                 (A) (A) (A) (A) (A) (A) (A) (A) (A) (A) (A) (A)
                 (A) (A) (A) (A) (A) (A) (A) (A) (A) (A) (A) (A)
                 (A) (A) (A) (A) (A) (A) (A) (A) (A) (A) (A) (A)
                 (A) (A) (A) (A) (A) (A) (A) (A) (A) (A) (A) (A)
                 (A) (A) (A) (A) (A) (A) (A) (A) (A) (A) (A) (A)
                 (A) (A) (A) (A) (A) (A) (A) (A) (A) (A) (A) (A)
                 (A) (A) (A) (A) (A) (A) (A) (A) (A) (A) (A) (A)
                 (A) (A) (A) (A) (A) (A) (A) (A) (A) (A) (A) (A)
                 (A) (A) (A) (A) (A) (A) (A) (A) (A) (A) (A) (A)
                 (A) (A) (A) (A) (A) (A) (A) (A) (A) (A) (A) (A)
                 (A) (A) (A) (A) (A) (A) (A) (A) (A) (A) (A) (A)
                 (A) (A) (A) (A) (A) (A) (A) (A) (A) (A) (A) (A)
                 (A) (A) (A) (A) (A) (A) (A) (A) (A) (A) (A) (A)
                 (A) (A) (A) (A) (A) (A) (A) (A) (A) (A) (A) (A)
                 (A) (A) (A) (A) (A) (A) (A) (A) (A) (A) (A) (A)
                 (A) (A) (A) (A) (A) (A) (A) (A) (A) (A) (A) (A)
                 (A) (A) (A) (A) (A) (A) (A) (A) (A) (A) (A) (A)
                 (A) (A) (A) (A) (A) (A) (A) (A) (A) (A) (A) (A)
                 (A) (A) (A) (A) (A) (A) (A) (A) (A) (A) (A) (A)
                 (A) (A) (A) (A) (A) (A) (A) (A) (A) (A) (A) (A)
                 (A) (A) (A) (A) (A) (A) (A) (A) (A) (A) (A) (A)
                 (A) (A) (A) (A) (A) (A) (A) (A) (A) (A) (A) (A)
                 (A) (A) (A) (A) (A) (A) (A) (A) (A) (A) (A) (A)
                 (A) (A) (A) (A) (A) (A) (A) (A) (A) (A) (A) (A)
                 (A) (A) (A) (A) (A) (A) (A) (A) (A) (A) (A) (A)
                 (A) (A) (A) (A) (A) (A) (A) (A) (A) (A) (A) (A)
                 (A) (A) (A) (A) (A) (A) (A) (A) (A) (A) (A) (A)
                 (A) (A) (A) (A) (A) (A) (A) (A) (A) (A) (A) (A)
                 (A) (A) (A) (A) (A) (A) (A) (A) (A) (A) (A) (A)
                 (A) (A) (A) (A) (A) (A) (A) (A) (A) (A) (A) (A)
                 (A) (A) (A) (A) (A) (A) (A) (A) (A) (A) (A) (A)
 The electronic state is 1-A.
 Alpha  occ. eigenvalues -- -101.72494 -10.29173 -10.24272 -10.23895 -10.23614
 Alpha  occ. eigenvalues --  -10.22372  -9.57474  -7.28688  -7.27764  -7.27763
 Alpha  occ. eigenvalues --   -0.88020  -0.81871  -0.75930  -0.68268  -0.61986
 Alpha  occ. eigenvalues --   -0.60421  -0.51304  -0.47413  -0.45820  -0.43936
 Alpha  occ. eigenvalues --   -0.41965  -0.41924  -0.38586  -0.37186  -0.35486
 Alpha  occ. eigenvalues --   -0.35484  -0.34456  -0.30512  -0.29706
 Alpha virt. eigenvalues --   -0.04172  -0.03004  -0.02865  -0.02615  -0.00914
 Alpha virt. eigenvalues --   -0.00669  -0.00529   0.00221   0.00520   0.01132
 Alpha virt. eigenvalues --    0.02081   0.02222   0.02714   0.03760   0.05238
 Alpha virt. eigenvalues --    0.05402   0.05797   0.06430   0.06610   0.06612
 Alpha virt. eigenvalues --    0.07121   0.07158   0.08423   0.08472   0.08686
 Alpha virt. eigenvalues --    0.08987   0.09122   0.10054   0.10356   0.10612
 Alpha virt. eigenvalues --    0.11140   0.11189   0.12082   0.12699   0.13367
 Alpha virt. eigenvalues --    0.13726   0.15161   0.15281   0.15446   0.15875
 Alpha virt. eigenvalues --    0.17408   0.17592   0.18596   0.18890   0.19731
 Alpha virt. eigenvalues --    0.20221   0.20450   0.22382   0.22496   0.22713
 Alpha virt. eigenvalues --    0.23394   0.23853   0.24008   0.24636   0.24930
 Alpha virt. eigenvalues --    0.25363   0.25955   0.26339   0.26496   0.26740
 Alpha virt. eigenvalues --    0.27221   0.27475   0.27845   0.28320   0.28663
 Alpha virt. eigenvalues --    0.28918   0.28960   0.29273   0.29623   0.30416
 Alpha virt. eigenvalues --    0.30628   0.30688   0.30862   0.31325   0.32057
 Alpha virt. eigenvalues --    0.32115   0.32296   0.33418   0.34743   0.35313
 Alpha virt. eigenvalues --    0.35636   0.36074   0.36284   0.36676   0.38005
 Alpha virt. eigenvalues --    0.38270   0.38442   0.39359   0.39464   0.40595
 Alpha virt. eigenvalues --    0.40766   0.41060   0.41134   0.41723   0.41743
 Alpha virt. eigenvalues --    0.42604   0.43945   0.45185   0.46242   0.46653
 Alpha virt. eigenvalues --    0.47087   0.48440   0.48484   0.49258   0.49637
 Alpha virt. eigenvalues --    0.50207   0.51633   0.52386   0.53882   0.54357
 Alpha virt. eigenvalues --    0.55151   0.55954   0.56913   0.57318   0.58685
 Alpha virt. eigenvalues --    0.59726   0.60016   0.61450   0.62385   0.62619
 Alpha virt. eigenvalues --    0.63256   0.63287   0.64044   0.65265   0.65331
 Alpha virt. eigenvalues --    0.66339   0.66832   0.67559   0.67701   0.68478
 Alpha virt. eigenvalues --    0.71276   0.71285   0.71828   0.71841   0.71953
 Alpha virt. eigenvalues --    0.73173   0.73268   0.74186   0.74294   0.74824
 Alpha virt. eigenvalues --    0.75442   0.76076   0.76629   0.76904   0.77314
 Alpha virt. eigenvalues --    0.78544   0.78753   0.79949   0.80000   0.81304
 Alpha virt. eigenvalues --    0.82122   0.82361   0.82536   0.83489   0.85483
 Alpha virt. eigenvalues --    0.86735   0.87461   0.88774   0.88874   0.89700
 Alpha virt. eigenvalues --    0.90317   0.90550   0.91358   0.91575   0.93306
 Alpha virt. eigenvalues --    0.94300   0.94829   0.95578   0.95653   0.96275
 Alpha virt. eigenvalues --    0.96551   0.97407   0.98191   0.99099   0.99789
 Alpha virt. eigenvalues --    1.00348   1.00376   1.02300   1.02978   1.03922
 Alpha virt. eigenvalues --    1.04843   1.05313   1.05803   1.06646   1.06888
 Alpha virt. eigenvalues --    1.08928   1.09037   1.09269   1.09879   1.10067
 Alpha virt. eigenvalues --    1.10583   1.12721   1.13160   1.14452   1.15893
 Alpha virt. eigenvalues --    1.16053   1.16295   1.17936   1.19437   1.20961
 Alpha virt. eigenvalues --    1.22369   1.23765   1.24579   1.25628   1.25749
 Alpha virt. eigenvalues --    1.28297   1.29956   1.30045   1.31086   1.32021
 Alpha virt. eigenvalues --    1.32788   1.32846   1.33854   1.34950   1.36186
 Alpha virt. eigenvalues --    1.37260   1.37725   1.38517   1.38715   1.39214
 Alpha virt. eigenvalues --    1.40097   1.40401   1.41623   1.42146   1.43806
 Alpha virt. eigenvalues --    1.44503   1.45445   1.46741   1.47220   1.47640
 Alpha virt. eigenvalues --    1.48148   1.48319   1.48940   1.49820   1.50138
 Alpha virt. eigenvalues --    1.51024   1.51862   1.52286   1.52633   1.53206
 Alpha virt. eigenvalues --    1.54491   1.54747   1.55792   1.56903   1.58510
 Alpha virt. eigenvalues --    1.59570   1.59584   1.60787   1.61983   1.62113
 Alpha virt. eigenvalues --    1.64680   1.65090   1.65908   1.67925   1.68327
 Alpha virt. eigenvalues --    1.69264   1.70060   1.70982   1.71260   1.72517
 Alpha virt. eigenvalues --    1.74636   1.75404   1.76605   1.77924   1.78330
 Alpha virt. eigenvalues --    1.79339   1.80876   1.81491   1.84699   1.86085
 Alpha virt. eigenvalues --    1.86433   1.89150   1.90337   1.90664   1.91697
 Alpha virt. eigenvalues --    1.92281   1.94950   1.96521   1.96850   1.97989
 Alpha virt. eigenvalues --    2.00509   2.02300   2.02962   2.03469   2.04055
 Alpha virt. eigenvalues --    2.05281   2.05595   2.08673   2.10856   2.11277
 Alpha virt. eigenvalues --    2.12311   2.13135   2.14506   2.16462   2.17486
 Alpha virt. eigenvalues --    2.19070   2.21027   2.23399   2.24998   2.27003
 Alpha virt. eigenvalues --    2.32565   2.34365   2.34585   2.37535   2.40571
 Alpha virt. eigenvalues --    2.44112   2.48064   2.49913   2.50555   2.53961
 Alpha virt. eigenvalues --    2.55601   2.57455   2.59654   2.65537   2.73777
 Alpha virt. eigenvalues --    2.75622   2.79684   2.82271   2.85395   2.87150
 Alpha virt. eigenvalues --    2.87740   2.89755   2.90431   2.94062   2.96013
 Alpha virt. eigenvalues --    2.98142   2.99707   3.02142   3.03911   3.04579
 Alpha virt. eigenvalues --    3.05209   3.05638   3.07494   3.10038   3.10075
 Alpha virt. eigenvalues --    3.12061   3.14530   3.17053   3.17569   3.21307
 Alpha virt. eigenvalues --    3.23219   3.24672   3.25666   3.26457   3.27616
 Alpha virt. eigenvalues --    3.28760   3.29336   3.31794   3.32234   3.33740
 Alpha virt. eigenvalues --    3.34351   3.34986   3.37729   3.38672   3.39549
 Alpha virt. eigenvalues --    3.41572   3.43542   3.45536   3.45646   3.47122
 Alpha virt. eigenvalues --    3.48770   3.51342   3.53325   3.54482   3.54882
 Alpha virt. eigenvalues --    3.55658   3.56964   3.59755   3.61386   3.61611
 Alpha virt. eigenvalues --    3.62247   3.63484   3.63686   3.65621   3.65715
 Alpha virt. eigenvalues --    3.66375   3.67300   3.68125   3.73956   3.78375
 Alpha virt. eigenvalues --    3.78912   3.80097   3.82087   3.82525   3.84305
 Alpha virt. eigenvalues --    3.86279   3.88635   3.90569   3.91849   3.92742
 Alpha virt. eigenvalues --    3.94265   3.97794   3.98623   4.00161   4.00603
 Alpha virt. eigenvalues --    4.01081   4.03250   4.05261   4.08531   4.09226
 Alpha virt. eigenvalues --    4.10138   4.11080   4.19318   4.20372   4.21643
 Alpha virt. eigenvalues --    4.21758   4.24526   4.25062   4.27581   4.31213
 Alpha virt. eigenvalues --    4.32150   4.32382   4.33495   4.35926   4.37079
 Alpha virt. eigenvalues --    4.37271   4.38510   4.41396   4.42461   4.44337
 Alpha virt. eigenvalues --    4.45032   4.48264   4.49615   4.50711   4.50953
 Alpha virt. eigenvalues --    4.55038   4.55218   4.61284   4.61477   4.64623
 Alpha virt. eigenvalues --    4.65455   4.68604   4.69037   4.72095   4.74005
 Alpha virt. eigenvalues --    4.74868   4.76637   4.77872   4.78264   4.78353
 Alpha virt. eigenvalues --    4.82274   4.82887   4.83096   4.84863   4.87266
 Alpha virt. eigenvalues --    4.88028   4.90212   4.91139   4.96625   4.98652
 Alpha virt. eigenvalues --    4.99251   5.00295   5.00429   5.02496   5.04133
 Alpha virt. eigenvalues --    5.05455   5.06533   5.08678   5.13877   5.15351
 Alpha virt. eigenvalues --    5.16313   5.18921   5.19830   5.21032   5.25057
 Alpha virt. eigenvalues --    5.29136   5.30186   5.33889   5.34510   5.36196
 Alpha virt. eigenvalues --    5.37475   5.39460   5.45332   5.46136   5.50571
 Alpha virt. eigenvalues --    5.52326   5.53394   5.56790   5.59673   5.60149
 Alpha virt. eigenvalues --    5.64414   5.65743   5.67229   5.73257   5.73951
 Alpha virt. eigenvalues --    5.76652   5.77371   5.85487   5.95202   5.98880
 Alpha virt. eigenvalues --    6.13443   6.15664   6.22612   6.29512   6.33316
 Alpha virt. eigenvalues --    6.37927   6.40461   6.54175   7.70583  16.62176
 Alpha virt. eigenvalues --   17.25628  17.46005  17.57756  18.06793
          Condensed to atoms (all electrons):
               1          2          3          4          5          6
     1  C    9.012835   0.046502   0.046715  -1.253572  -0.016279  -0.016122
     2  H    0.046502   0.334158   0.034486   0.086353  -0.055221   0.004870
     3  H    0.046715   0.034486   0.334153   0.086377   0.004838  -0.055197
     4  C   -1.253572   0.086353   0.086377  10.801235  -0.361426  -0.361037
     5  H   -0.016279  -0.055221   0.004838  -0.361426   0.561767   0.003566
     6  H   -0.016122   0.004870  -0.055197  -0.361037   0.003566   0.561425
     7  C    0.286894   0.046919   0.046776  -1.869130  -0.001159  -0.001246
     8  H   -0.112048  -0.052526  -0.033909   0.107682   0.126163  -0.019527
     9  H   -0.112217  -0.033948  -0.052549   0.108298  -0.019523   0.126033
    10  C   -0.205942   0.003839   0.003840   0.192388   0.054292   0.054292
    11  H    0.011121   0.001706   0.002005   0.036351   0.000958  -0.064747
    12  H    0.011056   0.002013   0.001699   0.036464  -0.064823   0.000879
    13  Cl  -0.672866   0.057351   0.057341   0.094142  -0.041982  -0.041945
    14  C   -0.105970   0.000371   0.000356  -0.289160   0.009077   0.009064
    15  H    0.007411   0.000673   0.000675  -0.002474  -0.000434  -0.000425
    16  H    0.003809   0.000492   0.001288   0.014557   0.001184  -0.001506
    17  H    0.003825   0.001299   0.000498   0.014602  -0.001510   0.001168
               7          8          9         10         11         12
     1  C    0.286894  -0.112048  -0.112217  -0.205942   0.011121   0.011056
     2  H    0.046919  -0.052526  -0.033948   0.003839   0.001706   0.002013
     3  H    0.046776  -0.033909  -0.052549   0.003840   0.002005   0.001699
     4  C   -1.869130   0.107682   0.108298   0.192388   0.036351   0.036464
     5  H   -0.001159   0.126163  -0.019523   0.054292   0.000958  -0.064823
     6  H   -0.001246  -0.019527   0.126033   0.054292  -0.064747   0.000879
     7  C   11.464134  -0.764104  -0.763095  -1.764712   0.220401   0.220942
     8  H   -0.764104   0.827178   0.013991   0.060624   0.070270  -0.088886
     9  H   -0.763095   0.013991   0.826847   0.059926  -0.088813   0.070366
    10  C   -1.764712   0.060624   0.059926  10.840857  -0.275733  -0.277008
    11  H    0.220401   0.070270  -0.088813  -0.275733   0.500895  -0.032863
    12  H    0.220942  -0.088886   0.070366  -0.277008  -0.032863   0.500957
    13  Cl   0.021654   0.001108   0.001121  -0.004234   0.000287   0.000296
    14  C    0.094844   0.047409   0.047326  -2.157687  -0.172408  -0.171747
    15  H    0.001059   0.012080   0.012104   0.108629  -0.032006  -0.031757
    16  H    0.012961  -0.020747  -0.059396   0.247999   0.058712  -0.002941
    17  H    0.013370  -0.059689  -0.020905   0.248492  -0.002410   0.058671
              13         14         15         16         17
     1  C   -0.672866  -0.105970   0.007411   0.003809   0.003825
     2  H    0.057351   0.000371   0.000673   0.000492   0.001299
     3  H    0.057341   0.000356   0.000675   0.001288   0.000498
     4  C    0.094142  -0.289160  -0.002474   0.014557   0.014602
     5  H   -0.041982   0.009077  -0.000434   0.001184  -0.001510
     6  H   -0.041945   0.009064  -0.000425  -0.001506   0.001168
     7  C    0.021654   0.094844   0.001059   0.012961   0.013370
     8  H    0.001108   0.047409   0.012080  -0.020747  -0.059689
     9  H    0.001121   0.047326   0.012104  -0.059396  -0.020905
    10  C   -0.004234  -2.157687   0.108629   0.247999   0.248492
    11  H    0.000287  -0.172408  -0.032006   0.058712  -0.002410
    12  H    0.000296  -0.171747  -0.031757  -0.002941   0.058671
    13  Cl  18.008570   0.002736   0.000264  -0.000012  -0.000012
    14  C    0.002736  11.913055   0.084727  -0.313109  -0.315462
    15  H    0.000264   0.084727   0.425695  -0.103609  -0.103882
    16  H   -0.000012  -0.313109  -0.103609   0.395025   0.048456
    17  H   -0.000012  -0.315462  -0.103882   0.048456   0.395744
 Mulliken charges:
               1
     1  C   -0.935153
     2  H    0.520662
     3  H    0.520608
     4  C   -1.441648
     5  H    0.800513
     6  H    0.800455
     7  C   -1.266508
     8  H    0.884930
     9  H    0.884435
    10  C   -1.189863
    11  H    0.766275
    12  H    0.766683
    13  Cl  -0.483820
    14  C   -2.683420
    15  H    0.621270
    16  H    0.716836
    17  H    0.717744
 Sum of Mulliken charges =  -0.00000
 Mulliken charges with hydrogens summed into heavy atoms:
               1
     1  C    0.106117
     4  C    0.159320
     7  C    0.502857
    10  C    0.343096
    13  Cl  -0.483820
    14  C   -0.627569
 Electronic spatial extent (au):  <R**2>=           1405.0960
 Charge=              0.0000 electrons
 Dipole moment (field-independent basis, Debye):
    X=             -2.0283    Y=              0.6701    Z=              0.0000  Tot=              2.1362
 Quadrupole moment (field-independent basis, Debye-Ang):
   XX=            -53.4232   YY=            -46.1417   ZZ=            -45.4506
   XY=              1.4131   XZ=             -0.0000   YZ=             -0.0001
 Traceless Quadrupole moment (field-independent basis, Debye-Ang):
   XX=             -5.0847   YY=              2.1968   ZZ=              2.8879
   XY=              1.4131   XZ=             -0.0000   YZ=             -0.0001
 Octapole moment (field-independent basis, Debye-Ang**2):
  XXX=             -3.2923  YYY=              0.2318  ZZZ=              0.0030  XYY=              4.9848
  XXY=             -3.0696  XXZ=             -0.0009  XZZ=              2.2969  YZZ=              0.9344
  YYZ=             -0.0022  XYZ=             -0.0011
 Hexadecapole moment (field-independent basis, Debye-Ang**3):
 XXXX=          -1722.7486 YYYY=           -146.0783 ZZZZ=            -83.1692 XXXY=             -0.6582
 XXXZ=              0.0109 YYYX=              1.0475 YYYZ=             -0.0028 ZZZX=             -0.0114
 ZZZY=              0.0010 XXYY=           -298.2288 XXZZ=           -292.3686 YYZZ=            -34.5789
 XXYZ=              0.0096 YYXZ=              0.0086 ZZXY=              0.1678
 N-N= 2.861033245647D+02 E-N=-2.121945587999D+03  KE= 6.548646795133D+02
 Calling FoFJK, ICntrl=      2127 FMM=F ISym2X=0 I1Cent= 0 IOpClX= 0 NMat=1 NMatS=1 NMatT=0.
 ***** Axes restored to original set *****
 -------------------------------------------------------------------
 Center     Atomic                   Forces (Hartrees/Bohr)
 Number     Number              X              Y              Z
 -------------------------------------------------------------------
      1        6           0.010049719   -0.034976555   -0.000000142
      2        1           0.001316714    0.008426748    0.010319550
      3        1           0.001316682    0.008426692   -0.010319510
      4        6           0.021673148    0.035143570   -0.000002179
      5        1          -0.006849729   -0.007857521    0.010560081
      6        1          -0.006850583   -0.007857065   -0.010559807
      7        6          -0.026755061   -0.034886379   -0.000006757
      8        1           0.007139107    0.009049303   -0.011458753
      9        1           0.007136968    0.009045985    0.011457737
     10        6           0.026684020    0.032366745    0.000006465
     11        1          -0.007199006   -0.008384253    0.010493093
     12        1          -0.007198609   -0.008392949   -0.010487187
     13       17          -0.013983933    0.004802375    0.000000078
     14        6          -0.029723013   -0.006241528   -0.000002100
     15        1           0.008860883   -0.011238721    0.000014544
     16        1           0.007193010    0.006272089   -0.010458322
     17        1           0.007189685    0.006301464    0.010443209
 -------------------------------------------------------------------
 Cartesian Forces:  Max     0.035143570 RMS     0.014183635

 GradGradGradGradGradGradGradGradGradGradGradGradGradGradGradGradGradGrad
 Berny optimization.
 FormGI is forming the generalized inverse of G from B-inverse, IUseBI=4.
 Internal  Forces:  Max     0.016001468 RMS     0.006329454
 Search for a local minimum.
 Step number   1 out of a maximum of   92
 All quantities printed in internal units (Hartrees-Bohrs-Radians)
 Mixed Optimization -- RFO/linear search
 Second derivative matrix not updated -- first step.
 ITU=  0
     Eigenvalues ---    0.00237   0.00237   0.00237   0.00237   0.03840
     Eigenvalues ---    0.03840   0.03840   0.04896   0.04896   0.04896
     Eigenvalues ---    0.05720   0.05720   0.05720   0.05976   0.07655
     Eigenvalues ---    0.07655   0.07655   0.11701   0.11701   0.11701
     Eigenvalues ---    0.16000   0.16000   0.16000   0.16000   0.16000
     Eigenvalues ---    0.21948   0.21948   0.21948   0.22461   0.28519
     Eigenvalues ---    0.28519   0.28519   0.28519   0.29539   0.37230
     Eigenvalues ---    0.37230   0.37230   0.37230   0.37230   0.37230
     Eigenvalues ---    0.37230   0.37230   0.37230   0.37230   0.37230
 RFO step:  Lambda=-1.07447511D-02 EMin= 2.36824120D-03
 Linear search not attempted -- first point.
 Iteration  1 RMS(Cart)=  0.02224283 RMS(Int)=  0.00041074
 Iteration  2 RMS(Cart)=  0.00066653 RMS(Int)=  0.00016560
 Iteration  3 RMS(Cart)=  0.00000013 RMS(Int)=  0.00016560
 Variable       Old X    -DE/DX   Delta X   Delta X   Delta X     New X
                                 (Linear)    (Quad)   (Total)
    R1        2.02201   0.01285   0.00000   0.03355   0.03355   2.05555
    R2        2.02201   0.01285   0.00000   0.03354   0.03354   2.05555
    R3        2.91018  -0.01208   0.00000  -0.04082  -0.04082   2.86936
    R4        3.32592   0.01397   0.00000   0.04563   0.04563   3.37155
    R5        2.02201   0.01460   0.00000   0.03813   0.03813   2.06013
    R6        2.02201   0.01460   0.00000   0.03812   0.03812   2.06013
    R7        2.91018  -0.00674   0.00000  -0.02276  -0.02276   2.88741
    R8        2.02201   0.01600   0.00000   0.04177   0.04177   2.06378
    R9        2.02201   0.01600   0.00000   0.04177   0.04177   2.06377
   R10        2.91018  -0.00807   0.00000  -0.02727  -0.02727   2.88291
   R11        2.02201   0.01493   0.00000   0.03897   0.03897   2.06097
   R12        2.02201   0.01493   0.00000   0.03896   0.03896   2.06097
   R13        2.91018  -0.00652   0.00000  -0.02203  -0.02203   2.88815
   R14        2.02201   0.01356   0.00000   0.03541   0.03541   2.05742
   R15        2.02201   0.01388   0.00000   0.03624   0.03624   2.05824
   R16        2.02201   0.01388   0.00000   0.03624   0.03624   2.05825
    A1        1.91063  -0.00251   0.00000  -0.01157  -0.01180   1.89883
    A2        1.91063   0.00256   0.00000   0.01840   0.01810   1.92873
    A3        1.91063  -0.00622   0.00000  -0.03273  -0.03307   1.87756
    A4        1.91063   0.00256   0.00000   0.01840   0.01810   1.92873
    A5        1.91063  -0.00622   0.00000  -0.03272  -0.03307   1.87756
    A6        1.91063   0.00985   0.00000   0.04021   0.03985   1.95049
    A7        1.91063  -0.00168   0.00000  -0.00788  -0.00814   1.90249
    A8        1.91063  -0.00168   0.00000  -0.00788  -0.00814   1.90249
    A9        1.91063   0.00487   0.00000   0.02759   0.02746   1.93809
   A10        1.91063  -0.00050   0.00000  -0.02290  -0.02302   1.88762
   A11        1.91063  -0.00051   0.00000   0.00553   0.00554   1.91617
   A12        1.91063  -0.00051   0.00000   0.00555   0.00555   1.91618
   A13        1.91063  -0.00159   0.00000   0.00019   0.00007   1.91070
   A14        1.91063  -0.00159   0.00000   0.00018   0.00007   1.91070
   A15        1.91063   0.00795   0.00000   0.04299   0.04273   1.95336
   A16        1.91063  -0.00024   0.00000  -0.02831  -0.02846   1.88217
   A17        1.91063  -0.00226   0.00000  -0.00752  -0.00786   1.90277
   A18        1.91063  -0.00226   0.00000  -0.00753  -0.00788   1.90275
   A19        1.91063  -0.00235   0.00000  -0.00951  -0.00994   1.90070
   A20        1.91063  -0.00236   0.00000  -0.00957  -0.00999   1.90064
   A21        1.91063   0.00751   0.00000   0.04124   0.04098   1.95161
   A22        1.91063  -0.00039   0.00000  -0.02938  -0.02956   1.88108
   A23        1.91063  -0.00121   0.00000   0.00363   0.00358   1.91421
   A24        1.91063  -0.00121   0.00000   0.00359   0.00354   1.91417
   A25        1.91063   0.00562   0.00000   0.03494   0.03462   1.94526
   A26        1.91063   0.00225   0.00000   0.01219   0.01202   1.92265
   A27        1.91063   0.00225   0.00000   0.01214   0.01198   1.92261
   A28        1.91063  -0.00365   0.00000  -0.01933  -0.01964   1.89100
   A29        1.91063  -0.00365   0.00000  -0.01933  -0.01963   1.89100
   A30        1.91063  -0.00282   0.00000  -0.02061  -0.02062   1.89001
    D1        1.04720   0.00131   0.00000   0.01468   0.01463   1.06183
    D2        3.14159  -0.00136   0.00000  -0.02303  -0.02293   3.11866
    D3       -1.04720  -0.00003   0.00000  -0.00417  -0.00414  -1.05134
    D4        3.14159   0.00136   0.00000   0.02304   0.02294  -3.11866
    D5       -1.04720  -0.00131   0.00000  -0.01467  -0.01463  -1.06182
    D6        1.04720   0.00003   0.00000   0.00420   0.00417   1.05136
    D7       -1.04720   0.00133   0.00000   0.01886   0.01879  -1.02841
    D8        1.04720  -0.00133   0.00000  -0.01885  -0.01878   1.02842
    D9        3.14159   0.00000   0.00000   0.00001   0.00001  -3.14158
   D10       -1.04720   0.00112   0.00000   0.01722   0.01730  -1.02990
   D11        1.04720  -0.00112   0.00000  -0.01723  -0.01731   1.02989
   D12        3.14159  -0.00000   0.00000  -0.00001  -0.00001   3.14158
   D13        3.14159   0.00051   0.00000   0.00659   0.00660  -3.13500
   D14       -1.04720  -0.00174   0.00000  -0.02786  -0.02801  -1.07521
   D15        1.04720  -0.00062   0.00000  -0.01064  -0.01072   1.03648
   D16        1.04720   0.00174   0.00000   0.02786   0.02802   1.07521
   D17        3.14159  -0.00050   0.00000  -0.00659  -0.00659   3.13500
   D18       -1.04720   0.00062   0.00000   0.01062   0.01070  -1.03650
   D19       -1.04720   0.00168   0.00000   0.02380   0.02370  -1.02350
   D20        1.04720  -0.00168   0.00000  -0.02386  -0.02376   1.02343
   D21        3.14159  -0.00000   0.00000  -0.00007  -0.00007   3.14152
   D22        3.14159   0.00015   0.00000   0.00185   0.00180  -3.13979
   D23       -1.04720  -0.00321   0.00000  -0.04582  -0.04566  -1.09286
   D24        1.04720  -0.00153   0.00000  -0.02203  -0.02197   1.02522
   D25        1.04720   0.00321   0.00000   0.04574   0.04559   1.09279
   D26        3.14159  -0.00015   0.00000  -0.00192  -0.00187   3.13972
   D27       -1.04720   0.00153   0.00000   0.02187   0.02182  -1.02538
   D28        3.13965   0.00001   0.00000   0.00037   0.00037   3.14002
   D29       -1.04914   0.00036   0.00000   0.00555   0.00563  -1.04351
   D30        1.04526  -0.00034   0.00000  -0.00479  -0.00486   1.04039
   D31        1.04526  -0.00098   0.00000  -0.01546  -0.01557   1.02968
   D32        3.13965  -0.00062   0.00000  -0.01028  -0.01032   3.12933
   D33       -1.04914  -0.00133   0.00000  -0.02061  -0.02081  -1.06995
   D34       -1.04914   0.00098   0.00000   0.01611   0.01623  -1.03291
   D35        1.04526   0.00133   0.00000   0.02129   0.02148   1.06674
   D36        3.13965   0.00063   0.00000   0.01095   0.01099  -3.13254
         Item               Value     Threshold  Converged?
 Maximum Force            0.016001     0.000450     NO 
 RMS     Force            0.006329     0.000300     NO 
 Maximum Displacement     0.073363     0.001800     NO 
 RMS     Displacement     0.021792     0.001200     NO 
 Predicted change in Energy=-5.633156D-03
 GradGradGradGradGradGradGradGradGradGradGradGradGradGradGradGradGradGrad

                          Input orientation:                          
 ---------------------------------------------------------------------
 Center     Atomic      Atomic             Coordinates (Angstroms)
 Number     Number       Type             X           Y           Z
 ---------------------------------------------------------------------
      1          6           0       -5.571183    1.869827   -0.000046
      2          1           0       -5.226677    2.401192    0.884359
      3          1           0       -5.226687    2.401130   -0.884491
      4          6           0       -5.050787    0.443391    0.000001
      5          1           0       -5.428939   -0.072433    0.882842
      6          1           0       -5.428946   -0.072494   -0.882801
      7          6           0       -3.523066    0.416692    0.000009
      8          1           0       -3.149752    0.940382   -0.882647
      9          1           0       -3.149761    0.940443    0.882627
     10          6           0       -2.978389   -1.008331    0.000077
     11          1           0       -3.353800   -1.530013    0.881194
     12          1           0       -3.353871   -1.530067   -0.880976
     13         17           0       -7.354534    1.923117   -0.000035
     14          6           0       -1.450237   -1.032363   -0.000021
     15          1           0       -1.067990   -2.051793    0.001618
     16          1           0       -1.066878   -0.523907   -0.883658
     17          1           0       -1.066762   -0.521018    0.881898
 ---------------------------------------------------------------------
                    Distance matrix (angstroms):
                    1          2          3          4          5
     1  C    0.000000
     2  H    1.087751   0.000000
     3  H    1.087751   1.768849   0.000000
     4  C    1.518398   2.155460   2.155461   0.000000
     5  H    2.138247   2.481881   3.046783   1.090175   0.000000
     6  H    2.138247   3.046783   2.481881   1.090175   1.765643
     7  C    2.511251   2.760906   2.760916   1.527954   2.156615
     8  H    2.739741   3.093524   2.539183   2.154067   3.055723
     9  H    2.739736   2.539168   3.093532   2.154063   2.494107
    10  C    3.873806   4.178708   4.178724   2.530283   2.767738
    11  H    4.153587   4.354544   4.698855   2.747834   2.535891
    12  H    4.153527   4.698788   4.354511   2.747759   3.088957
    13  Cl   1.784147   2.353398   2.353399   2.738035   2.910259
    14  C    5.040327   5.180051   5.180033   3.891248   4.187002
    15  H    5.971419   6.156539   6.156986   4.699852   4.869527
    16  H    5.176823   5.383866   5.085259   4.193811   4.727782
    17  H    5.175304   5.083720   5.381827   4.192885   4.385182
                    6          7          8          9         10
     6  H    0.000000
     7  C    2.156625   0.000000
     8  H    2.494122   1.092106   0.000000
     9  H    3.055726   1.092102   1.765273   0.000000
    10  C    2.767759   1.525571   2.146171   2.146155   0.000000
    11  H    3.089056   2.143549   3.042306   2.478868   1.090620
    12  H    2.535834   2.143510   2.478868   3.042265   1.090619
    13  Cl   2.910263   4.116972   4.407376   4.407364   5.267260
    14  C    4.186976   2.529107   2.749382   2.749438   1.528341
    15  H    4.870087   3.481497   3.750836   3.750122   2.176795
    16  H    4.385363   2.774609   2.546077   3.098787   2.160909
    17  H    4.726942   2.773168   3.096475   2.544553   2.160880
                   11         12         13         14         15
    11  H    0.000000
    12  H    1.762170   0.000000
    13  Cl   5.357849   5.357783   0.000000
    14  C    2.155863   2.155833   6.602695   0.000000
    15  H    2.504163   2.505279   7.437778   1.088739   0.000000
    16  H    3.058915   2.498540   6.804655   1.089176   1.765828
    17  H    2.499722   3.058885   6.803505   1.089178   1.765833
                   16         17
    16  H    0.000000
    17  H    1.765558   0.000000
 Stoichiometry    C5H11Cl
 Framework group  C1[X(C5H11Cl)]
 Deg. of freedom    45
 Full point group                 C1      NOp   1
 Largest Abelian subgroup         C1      NOp   1
 Largest concise Abelian subgroup C1      NOp   1
                         Standard orientation:                         
 ---------------------------------------------------------------------
 Center     Atomic      Atomic             Coordinates (Angstroms)
 Number     Number       Type             X           Y           Z
 ---------------------------------------------------------------------
      1          6           0        1.342595    0.651087    0.000037
      2          1           0        1.304766    1.283227   -0.884368
      3          1           0        1.304745    1.283169    0.884482
      4          6           0        0.186700   -0.333514   -0.000010
      5          1           0        0.261464   -0.968717   -0.882851
      6          1           0        0.261440   -0.968774    0.882792
      7          6           0       -1.155696    0.396292   -0.000018
      8          1           0       -1.222375    1.035955    0.882638
      9          1           0       -1.222337    1.036003   -0.882636
     10          6           0       -2.332022   -0.575110   -0.000086
     11          1           0       -2.262530   -1.214059   -0.881203
     12          1           0       -2.262495   -1.214141    0.880968
     13         17           0        2.920517   -0.181586    0.000026
     14          6           0       -3.673479    0.157229    0.000012
     15          1           0       -4.508555   -0.541340   -0.001627
     16          1           0       -3.756406    0.788588    0.883649
     17          1           0       -3.755083    0.791158   -0.881907
 ---------------------------------------------------------------------
 Rotational constants (GHZ):     15.1107212      0.7971703      0.7754728
 Standard basis: Aug-CC-pVTZ (5D, 7F)
 There are   609 symmetry adapted cartesian basis functions of A   symmetry.
 There are   533 symmetry adapted basis functions of A   symmetry.
   533 basis functions,   771 primitive gaussians,   609 cartesian basis functions
    29 alpha electrons       29 beta electrons
       nuclear repulsion energy       284.3154255458 Hartrees.
 NAtoms=   17 NActive=   17 NUniq=   17 SFac= 1.00D+00 NAtFMM=   60 NAOKFM=F Big=F
 Integral buffers will be    131072 words long.
 Raffenetti 2 integral format.
 Two-electron integral symmetry is turned on.
 One-electron integrals computed using PRISM.
 NBasis=   533 RedAO= T EigKep=  6.28D-06  NBF=   533
 NBsUse=   533 1.00D-06 EigRej= -1.00D+00 NBFU=   533
 Initial guess from the checkpoint file:  "20170630_augccpVTZ_ccsdt_chloropentane.chk"
 B after Tr=    -0.000000    0.000000   -0.000000
         Rot=    1.000000   -0.000005    0.000004   -0.000247 Ang=  -0.03 deg.
 ExpMin= 2.53D-02 ExpMax= 4.56D+05 ExpMxC= 1.44D+03 IAcc=3 IRadAn=         5 AccDes= 0.00D+00
 Harris functional with IExCor= 1009 and IRadAn=       5 diagonalized for initial guess.
 HarFok:  IExCor= 1009 AccDes= 0.00D+00 IRadAn=         5 IDoV= 1 UseB2=F ITyADJ=14
 ICtDFT=  3500011 ScaDFX=  1.000000  1.000000  1.000000  1.000000
 FoFCou: FMM=F IPFlag=           0 FMFlag=      100000 FMFlg1=           0
         NFxFlg=           0 DoJE=T BraDBF=F KetDBF=T FulRan=T
         wScrn=  0.000000 ICntrl=     500 IOpCl=  0 I1Cent=   200000004 NGrid=           0
         NMat0=    1 NMatS0=      1 NMatT0=    0 NMatD0=    1 NMtDS0=    0 NMtDT0=    0
 Petite list used in FoFCou.
 Requested convergence on RMS density matrix=1.00D-08 within 128 cycles.
 Requested convergence on MAX density matrix=1.00D-06.
 Requested convergence on             energy=1.00D-06.
 No special actions if energy rises.
 SCF Done:  E(RM06) =  -657.270806994     A.U. after   12 cycles
            NFock= 12  Conv=0.31D-08     -V/T= 2.0041
 Calling FoFJK, ICntrl=      2127 FMM=F ISym2X=0 I1Cent= 0 IOpClX= 0 NMat=1 NMatS=1 NMatT=0.
 ***** Axes restored to original set *****
 -------------------------------------------------------------------
 Center     Atomic                   Forces (Hartrees/Bohr)
 Number     Number              X              Y              Z
 -------------------------------------------------------------------
      1        6           0.009114925   -0.008817239    0.000000411
      2        1          -0.001034451    0.001755892    0.000604052
      3        1          -0.001034549    0.001755945   -0.000604255
      4        6           0.004767860    0.009914604   -0.000000654
      5        1          -0.001494246   -0.002315613    0.000428808
      6        1          -0.001493954   -0.002315437   -0.000428758
      7        6          -0.007561163   -0.009592302   -0.000003554
      8        1           0.001648658    0.002608037   -0.000607752
      9        1           0.001647031    0.002609111    0.000608575
     10        6           0.008669572    0.008501889   -0.000002704
     11        1          -0.001738284   -0.002325393    0.000463359
     12        1          -0.001739697   -0.002336590   -0.000457942
     13       17          -0.004083189    0.000482963   -0.000000094
     14        6          -0.010474307   -0.001103089   -0.000000387
     15        1           0.001102060   -0.000255976   -0.000004518
     16        1           0.001850371    0.000719948   -0.000738913
     17        1           0.001853365    0.000713249    0.000744328
 -------------------------------------------------------------------
 Cartesian Forces:  Max     0.010474307 RMS     0.003906496

 GradGradGradGradGradGradGradGradGradGradGradGradGradGradGradGradGradGrad
 Berny optimization.
 Using GEDIIS/GDIIS optimizer.
 FormGI is forming the generalized inverse of G from B-inverse, IUseBI=4.
 Internal  Forces:  Max     0.005700722 RMS     0.001531712
 Search for a local minimum.
 Step number   2 out of a maximum of   92
 All quantities printed in internal units (Hartrees-Bohrs-Radians)
 Mixed Optimization -- RFO/linear search
 Update second derivatives using D2CorX and points    1    2
 DE= -6.43D-03 DEPred=-5.63D-03 R= 1.14D+00
 TightC=F SS=  1.41D+00  RLast= 2.19D-01 DXNew= 5.0454D-01 6.5706D-01
 Trust test= 1.14D+00 RLast= 2.19D-01 DXMaxT set to 5.05D-01
 ITU=  1  0
 Use linear search instead of GDIIS.
     Eigenvalues ---    0.00237   0.00237   0.00237   0.00237   0.03546
     Eigenvalues ---    0.03552   0.03638   0.04513   0.04792   0.04812
     Eigenvalues ---    0.05410   0.05436   0.05589   0.05738   0.07969
     Eigenvalues ---    0.08092   0.08116   0.11934   0.12039   0.12049
     Eigenvalues ---    0.15032   0.16000   0.16000   0.16000   0.16060
     Eigenvalues ---    0.21849   0.21937   0.22125   0.22802   0.25105
     Eigenvalues ---    0.28519   0.28519   0.28581   0.29510   0.37009
     Eigenvalues ---    0.37230   0.37230   0.37230   0.37230   0.37230
     Eigenvalues ---    0.37230   0.37230   0.37230   0.37230   0.38890
 RFO step:  Lambda=-7.89080900D-04 EMin= 2.36824119D-03
 Quartic linear search produced a step of  0.27726.
 Iteration  1 RMS(Cart)=  0.00816483 RMS(Int)=  0.00015161
 Iteration  2 RMS(Cart)=  0.00016158 RMS(Int)=  0.00010050
 Iteration  3 RMS(Cart)=  0.00000002 RMS(Int)=  0.00010050
 Variable       Old X    -DE/DX   Delta X   Delta X   Delta X     New X
                                 (Linear)    (Quad)   (Total)
    R1        2.05555   0.00103   0.00930  -0.00368   0.00563   2.06118
    R2        2.05555   0.00103   0.00930  -0.00368   0.00563   2.06118
    R3        2.86936  -0.00551  -0.01132  -0.01582  -0.02714   2.84222
    R4        3.37155   0.00408   0.01265   0.00780   0.02045   3.39200
    R5        2.06013   0.00196   0.01057  -0.00149   0.00908   2.06921
    R6        2.06013   0.00196   0.01057  -0.00149   0.00908   2.06921
    R7        2.88741  -0.00478  -0.00631  -0.01646  -0.02277   2.86464
    R8        2.06378   0.00231   0.01158  -0.00108   0.01050   2.07428
    R9        2.06377   0.00231   0.01158  -0.00108   0.01050   2.07427
   R10        2.88291  -0.00377  -0.00756  -0.01099  -0.01855   2.86436
   R11        2.06097   0.00209   0.01080  -0.00122   0.00959   2.07056
   R12        2.06097   0.00209   0.01080  -0.00121   0.00959   2.07056
   R13        2.88815  -0.00570  -0.00611  -0.02071  -0.02682   2.86133
   R14        2.05742   0.00064   0.00982  -0.00542   0.00440   2.06182
   R15        2.05824   0.00158   0.01005  -0.00239   0.00766   2.06591
   R16        2.05825   0.00158   0.01005  -0.00238   0.00767   2.06592
    A1        1.89883  -0.00151  -0.00327  -0.00160  -0.00531   1.89353
    A2        1.92873   0.00209   0.00502   0.01448   0.01923   1.94796
    A3        1.87756  -0.00138  -0.00917  -0.00808  -0.01730   1.86026
    A4        1.92873   0.00209   0.00502   0.01448   0.01923   1.94796
    A5        1.87756  -0.00138  -0.00917  -0.00808  -0.01730   1.86026
    A6        1.95049  -0.00014   0.01105  -0.01218  -0.00119   1.94930
    A7        1.90249   0.00051  -0.00226   0.00862   0.00626   1.90875
    A8        1.90249   0.00051  -0.00226   0.00862   0.00626   1.90875
    A9        1.93809  -0.00058   0.00761  -0.00357   0.00394   1.94203
   A10        1.88762  -0.00115  -0.00638  -0.02035  -0.02674   1.86088
   A11        1.91617   0.00035   0.00153   0.00314   0.00464   1.92081
   A12        1.91618   0.00035   0.00154   0.00314   0.00463   1.92082
   A13        1.91070  -0.00001   0.00002   0.00280   0.00268   1.91338
   A14        1.91070  -0.00001   0.00002   0.00279   0.00267   1.91337
   A15        1.95336   0.00068   0.01185   0.00164   0.01328   1.96664
   A16        1.88217  -0.00105  -0.00789  -0.02281  -0.03071   1.85146
   A17        1.90277   0.00016  -0.00218   0.00729   0.00494   1.90771
   A18        1.90275   0.00016  -0.00218   0.00731   0.00496   1.90771
   A19        1.90070   0.00016  -0.00276   0.00613   0.00317   1.90387
   A20        1.90064   0.00016  -0.00277   0.00615   0.00318   1.90382
   A21        1.95161   0.00021   0.01136  -0.00110   0.01008   1.96169
   A22        1.88108  -0.00109  -0.00819  -0.02136  -0.02958   1.85150
   A23        1.91421   0.00025   0.00099   0.00468   0.00560   1.91981
   A24        1.91417   0.00025   0.00098   0.00469   0.00560   1.91977
   A25        1.94526   0.00073   0.00960  -0.00124   0.00822   1.95347
   A26        1.92265   0.00145   0.00333   0.00879   0.01201   1.93466
   A27        1.92261   0.00145   0.00332   0.00882   0.01204   1.93465
   A28        1.89100  -0.00112  -0.00544  -0.00424  -0.00982   1.88118
   A29        1.89100  -0.00112  -0.00544  -0.00425  -0.00983   1.88117
   A30        1.89001  -0.00155  -0.00572  -0.00852  -0.01430   1.87571
    D1        1.06183  -0.00002   0.00406  -0.00117   0.00278   1.06461
    D2        3.11866  -0.00083  -0.00636  -0.01578  -0.02223   3.09643
    D3       -1.05134  -0.00043  -0.00115  -0.00847  -0.00972  -1.06106
    D4       -3.11866   0.00083   0.00636   0.01578   0.02223  -3.09643
    D5       -1.06182   0.00002  -0.00405   0.00117  -0.00278  -1.06461
    D6        1.05136   0.00043   0.00115   0.00847   0.00972   1.06108
    D7       -1.02841   0.00040   0.00521   0.00730   0.01251  -1.01591
    D8        1.02842  -0.00040  -0.00521  -0.00731  -0.01250   1.01591
    D9       -3.14158  -0.00000   0.00000  -0.00000   0.00000  -3.14158
   D10       -1.02990   0.00064   0.00480   0.01215   0.01698  -1.01292
   D11        1.02989  -0.00064  -0.00480  -0.01223  -0.01706   1.01283
   D12        3.14158   0.00000  -0.00000  -0.00003  -0.00003   3.14155
   D13       -3.13500   0.00015   0.00183   0.00160   0.00343  -3.13157
   D14       -1.07521  -0.00114  -0.00777  -0.02278  -0.03061  -1.10582
   D15        1.03648  -0.00049  -0.00297  -0.01058  -0.01358   1.02290
   D16        1.07521   0.00113   0.00777   0.02270   0.03053   1.10575
   D17        3.13500  -0.00015  -0.00183  -0.00168  -0.00351   3.13149
   D18       -1.03650   0.00049   0.00297   0.01052   0.01352  -1.02298
   D19       -1.02350   0.00056   0.00657   0.00915   0.01571  -1.00779
   D20        1.02343  -0.00056  -0.00659  -0.00952  -0.01609   1.00734
   D21        3.14152  -0.00000  -0.00002  -0.00017  -0.00019   3.14133
   D22       -3.13979   0.00003   0.00050  -0.00039   0.00008  -3.13971
   D23       -1.09286  -0.00110  -0.01266  -0.01906  -0.03171  -1.12458
   D24        1.02522  -0.00054  -0.00609  -0.00971  -0.01582   1.00941
   D25        1.09279   0.00110   0.01264   0.01870   0.03134   1.12413
   D26        3.13972  -0.00003  -0.00052   0.00003  -0.00046   3.13926
   D27       -1.02538   0.00053   0.00605   0.00938   0.01544  -1.00995
   D28        3.14002   0.00000   0.00010   0.00135   0.00146   3.14148
   D29       -1.04351   0.00005   0.00156   0.00109   0.00267  -1.04084
   D30        1.04039  -0.00004  -0.00135   0.00161   0.00024   1.04064
   D31        1.02968  -0.00051  -0.00432  -0.00885  -0.01322   1.01646
   D32        3.12933  -0.00047  -0.00286  -0.00911  -0.01201   3.11732
   D33       -1.06995  -0.00055  -0.00577  -0.00859  -0.01444  -1.08438
   D34       -1.03291   0.00052   0.00450   0.01158   0.01614  -1.01677
   D35        1.06674   0.00056   0.00596   0.01132   0.01735   1.08409
   D36       -3.13254   0.00047   0.00305   0.01184   0.01493  -3.11762
         Item               Value     Threshold  Converged?
 Maximum Force            0.005701     0.000450     NO 
 RMS     Force            0.001532     0.000300     NO 
 Maximum Displacement     0.029412     0.001800     NO 
 RMS     Displacement     0.008207     0.001200     NO 
 Predicted change in Energy=-6.636325D-04
 GradGradGradGradGradGradGradGradGradGradGradGradGradGradGradGradGradGrad

                          Input orientation:                          
 ---------------------------------------------------------------------
 Center     Atomic      Atomic             Coordinates (Angstroms)
 Number     Number       Type             X           Y           Z
 ---------------------------------------------------------------------
      1          6           0       -5.555618    1.860541   -0.000197
      2          1           0       -5.227273    2.406922    0.884871
      3          1           0       -5.227293    2.406646   -0.885442
      4          6           0       -5.043187    0.446491    0.000020
      5          1           0       -5.431181   -0.080127    0.878150
      6          1           0       -5.431194   -0.080402   -0.877939
      7          6           0       -3.527705    0.410772    0.000024
      8          1           0       -3.146187    0.949122   -0.877178
      9          1           0       -3.146189    0.949465    0.877014
     10          6           0       -2.976367   -1.001156    0.000304
     11          1           0       -3.360871   -1.535707    0.876065
     12          1           0       -3.361262   -1.536155   -0.875013
     13         17           0       -7.349735    1.915880   -0.000184
     14          6           0       -1.462480   -1.029345   -0.000067
     15          1           0       -1.073985   -2.048903    0.000250
     16          1           0       -1.064082   -0.520498   -0.881830
     17          1           0       -1.063651   -0.519792    0.881102
 ---------------------------------------------------------------------
                    Distance matrix (angstroms):
                    1          2          3          4          5
     1  C    0.000000
     2  H    1.090728   0.000000
     3  H    1.090728   1.770313   0.000000
     4  C    1.504036   2.158736   2.158737   0.000000
     5  H    2.133815   2.495403   3.055464   1.094978   0.000000
     6  H    2.133816   3.055464   2.495403   1.094978   1.756088
     7  C    2.492842   2.766965   2.766977   1.515903   2.152976
     8  H    2.721239   3.092073   2.540758   2.149587   3.059694
     9  H    2.721196   2.540700   3.092026   2.149582   2.506242
    10  C    3.852512   4.178999   4.179034   2.523376   2.764963
    11  H    4.137541   4.362093   4.704103   2.743492   2.530791
    12  H    4.137397   4.703940   4.362094   2.743254   3.078663
    13  Cl   1.794970   2.351444   2.351445   2.734825   2.904542
    14  C    5.010511   5.173462   5.173369   3.872926   4.174071
    15  H    5.947167   6.155220   6.155188   4.688450   4.861270
    16  H    5.159508   5.387316   5.089255   4.188795   4.728954
    17  H    5.159500   5.089343   5.387080   4.188880   4.389605
                    6          7          8          9         10
     6  H    0.000000
     7  C    2.152984   0.000000
     8  H    2.506228   1.097662   0.000000
     9  H    3.059695   1.097659   1.754192   0.000000
    10  C    2.765009   1.515755   2.145320   2.145316   0.000000
    11  H    3.079071   2.141042   3.048659   2.494427   1.095694
    12  H    2.530582   2.141009   2.494567   3.048632   1.095696
    13  Cl   2.904547   4.107708   4.401541   4.401504   5.256943
    14  C    4.173948   2.517756   2.741993   2.742232   1.514149
    15  H    4.861223   3.474298   3.748607   3.748726   2.171827
    16  H    4.389233   2.777476   2.548522   3.096690   2.160098
    17  H    4.728923   2.777374   3.096160   2.548665   2.160092
                   11         12         13         14         15
    11  H    0.000000
    12  H    1.751078   0.000000
    13  Cl   5.347177   5.346943   0.000000
    14  C    2.151255   2.151223   6.582866   0.000000
    15  H    2.502053   2.502126   7.423244   1.091067   0.000000
    16  H    3.065303   2.511701   6.798726   1.093230   1.764705
    17  H    2.511838   3.065281   6.798824   1.093237   1.764706
                   16         17
    16  H    0.000000
    17  H    1.762932   0.000000
 Stoichiometry    C5H11Cl
 Framework group  C1[X(C5H11Cl)]
 Deg. of freedom    45
 Full point group                 C1      NOp   1
 Largest Abelian subgroup         C1      NOp   1
 Largest concise Abelian subgroup C1      NOp   1
                         Standard orientation:                         
 ---------------------------------------------------------------------
 Center     Atomic      Atomic             Coordinates (Angstroms)
 Number     Number       Type             X           Y           Z
 ---------------------------------------------------------------------
      1          6           0        1.326924    0.652352   -0.000052
      2          1           0        1.310134    1.289384   -0.885261
      3          1           0        1.310094    1.289530    0.885052
      4          6           0        0.184652   -0.326084    0.000001
      5          1           0        0.263011   -0.975680   -0.877987
      6          1           0        0.262964   -0.975532    0.878101
      7          6           0       -1.151973    0.389037   -0.000105
      8          1           0       -1.218920    1.045655    0.876953
      9          1           0       -1.218826    1.045560   -0.877238
     10          6           0       -2.327064   -0.568395   -0.000119
     11          1           0       -2.255648   -1.223177   -0.875736
     12          1           0       -2.255452   -1.223368    0.875341
     13         17           0        2.915725   -0.182889    0.000053
     14          6           0       -3.658592    0.152494    0.000149
     15          1           0       -4.498749   -0.543611    0.000024
     16          1           0       -3.754757    0.791746    0.881773
     17          1           0       -3.754861    0.792179   -0.881159
 ---------------------------------------------------------------------
 Rotational constants (GHZ):     15.1584270      0.8014349      0.7794942
 Standard basis: Aug-CC-pVTZ (5D, 7F)
 There are   609 symmetry adapted cartesian basis functions of A   symmetry.
 There are   533 symmetry adapted basis functions of A   symmetry.
   533 basis functions,   771 primitive gaussians,   609 cartesian basis functions
    29 alpha electrons       29 beta electrons
       nuclear repulsion energy       284.8065700343 Hartrees.
 NAtoms=   17 NActive=   17 NUniq=   17 SFac= 1.00D+00 NAtFMM=   60 NAOKFM=F Big=F
 Integral buffers will be    131072 words long.
 Raffenetti 2 integral format.
 Two-electron integral symmetry is turned on.
 One-electron integrals computed using PRISM.
 NBasis=   533 RedAO= T EigKep=  6.04D-06  NBF=   533
 NBsUse=   533 1.00D-06 EigRej= -1.00D+00 NBFU=   533
 Initial guess from the checkpoint file:  "20170630_augccpVTZ_ccsdt_chloropentane.chk"
 B after Tr=    -0.000000    0.000000    0.000000
         Rot=    1.000000    0.000098   -0.000008   -0.000110 Ang=   0.02 deg.
 ExpMin= 2.53D-02 ExpMax= 4.56D+05 ExpMxC= 1.44D+03 IAcc=3 IRadAn=         5 AccDes= 0.00D+00
 Harris functional with IExCor= 1009 and IRadAn=       5 diagonalized for initial guess.
 HarFok:  IExCor= 1009 AccDes= 0.00D+00 IRadAn=         5 IDoV= 1 UseB2=F ITyADJ=14
 ICtDFT=  3500011 ScaDFX=  1.000000  1.000000  1.000000  1.000000
 FoFCou: FMM=F IPFlag=           0 FMFlag=      100000 FMFlg1=           0
         NFxFlg=           0 DoJE=T BraDBF=F KetDBF=T FulRan=T
         wScrn=  0.000000 ICntrl=     500 IOpCl=  0 I1Cent=   200000004 NGrid=           0
         NMat0=    1 NMatS0=      1 NMatT0=    0 NMatD0=    1 NMtDS0=    0 NMtDT0=    0
 Petite list used in FoFCou.
 Requested convergence on RMS density matrix=1.00D-08 within 128 cycles.
 Requested convergence on MAX density matrix=1.00D-06.
 Requested convergence on             energy=1.00D-06.
 No special actions if energy rises.
 SCF Done:  E(RM06) =  -657.271524826     A.U. after   11 cycles
            NFock= 11  Conv=0.37D-08     -V/T= 2.0041
 Calling FoFJK, ICntrl=      2127 FMM=F ISym2X=0 I1Cent= 0 IOpClX= 0 NMat=1 NMatS=1 NMatT=0.
 ***** Axes restored to original set *****
 -------------------------------------------------------------------
 Center     Atomic                   Forces (Hartrees/Bohr)
 Number     Number              X              Y              Z
 -------------------------------------------------------------------
      1        6           0.002434970    0.000950178    0.000000194
      2        1          -0.000389419   -0.000348292   -0.000747054
      3        1          -0.000389400   -0.000348173    0.000746977
      4        6          -0.000791462    0.000067196    0.000001671
      5        1           0.000070869    0.000041097   -0.000615919
      6        1           0.000071693    0.000041354    0.000615766
      7        6           0.000240915   -0.000263084    0.000000606
      8        1           0.000009602   -0.000042470    0.000549537
      9        1           0.000011230   -0.000040682   -0.000548988
     10        6           0.000492014   -0.000031065   -0.000008392
     11        1           0.000011065    0.000048460   -0.000518523
     12        1           0.000010634    0.000045759    0.000519707
     13       17          -0.001818023   -0.000024545   -0.000000082
     14        6           0.000078180   -0.000239499    0.000007827
     15        1          -0.000037066    0.000689800   -0.000000702
     16        1          -0.000003004   -0.000271723    0.000607591
     17        1          -0.000002798   -0.000274311   -0.000610216
 -------------------------------------------------------------------
 Cartesian Forces:  Max     0.002434970 RMS     0.000562819

 GradGradGradGradGradGradGradGradGradGradGradGradGradGradGradGradGradGrad
 Berny optimization.
 Using GEDIIS/GDIIS optimizer.
 FormGI is forming the generalized inverse of G from B-inverse, IUseBI=4.
 Internal  Forces:  Max     0.001806965 RMS     0.000340629
 Search for a local minimum.
 Step number   3 out of a maximum of   92
 All quantities printed in internal units (Hartrees-Bohrs-Radians)
 Mixed Optimization -- En-DIIS/RFO-DIIS
 Update second derivatives using D2CorX and points    1    2    3
 DE= -7.18D-04 DEPred=-6.64D-04 R= 1.08D+00
 TightC=F SS=  1.41D+00  RLast= 1.32D-01 DXNew= 8.4853D-01 3.9539D-01
 Trust test= 1.08D+00 RLast= 1.32D-01 DXMaxT set to 5.05D-01
 ITU=  1  1  0
 Use linear search instead of GDIIS.
     Eigenvalues ---    0.00237   0.00237   0.00237   0.00237   0.03406
     Eigenvalues ---    0.03432   0.03554   0.03935   0.04728   0.04758
     Eigenvalues ---    0.05328   0.05365   0.05467   0.05535   0.08064
     Eigenvalues ---    0.08247   0.08308   0.12006   0.12158   0.12192
     Eigenvalues ---    0.14616   0.16000   0.16000   0.16007   0.16065
     Eigenvalues ---    0.21773   0.21883   0.22055   0.22658   0.25708
     Eigenvalues ---    0.28519   0.28566   0.28577   0.30355   0.37031
     Eigenvalues ---    0.37230   0.37230   0.37230   0.37230   0.37230
     Eigenvalues ---    0.37230   0.37230   0.37230   0.37252   0.40763
 RFO step:  Lambda=-3.89962861D-05 EMin= 2.36823055D-03
 Quartic linear search produced a step of  0.04006.
 Iteration  1 RMS(Cart)=  0.00326666 RMS(Int)=  0.00000519
 Iteration  2 RMS(Cart)=  0.00000438 RMS(Int)=  0.00000421
 Iteration  3 RMS(Cart)=  0.00000000 RMS(Int)=  0.00000421
 Variable       Old X    -DE/DX   Delta X   Delta X   Delta X     New X
                                 (Linear)    (Quad)   (Total)
    R1        2.06118  -0.00089   0.00023  -0.00232  -0.00209   2.05909
    R2        2.06118  -0.00089   0.00023  -0.00232  -0.00209   2.05909
    R3        2.84222   0.00030  -0.00109   0.00130   0.00022   2.84243
    R4        3.39200   0.00181   0.00082   0.00625   0.00707   3.39907
    R5        2.06921  -0.00054   0.00036  -0.00139  -0.00103   2.06818
    R6        2.06921  -0.00054   0.00036  -0.00139  -0.00103   2.06818
    R7        2.86464   0.00078  -0.00091   0.00308   0.00216   2.86681
    R8        2.07428  -0.00046   0.00042  -0.00115  -0.00073   2.07355
    R9        2.07427  -0.00045   0.00042  -0.00115  -0.00072   2.07355
   R10        2.86436   0.00027  -0.00074   0.00114   0.00040   2.86476
   R11        2.07056  -0.00044   0.00038  -0.00110  -0.00072   2.06984
   R12        2.07056  -0.00044   0.00038  -0.00110  -0.00071   2.06985
   R13        2.86133   0.00001  -0.00107   0.00039  -0.00068   2.86065
   R14        2.06182  -0.00065   0.00018  -0.00161  -0.00143   2.06038
   R15        2.06591  -0.00063   0.00031  -0.00161  -0.00130   2.06461
   R16        2.06592  -0.00063   0.00031  -0.00162  -0.00131   2.06461
    A1        1.89353  -0.00014  -0.00021  -0.00014  -0.00037   1.89316
    A2        1.94796   0.00021   0.00077   0.00122   0.00198   1.94993
    A3        1.86026  -0.00003  -0.00069  -0.00071  -0.00140   1.85886
    A4        1.94796   0.00021   0.00077   0.00121   0.00197   1.94993
    A5        1.86026  -0.00003  -0.00069  -0.00071  -0.00140   1.85886
    A6        1.94930  -0.00023  -0.00005  -0.00102  -0.00107   1.94823
    A7        1.90875  -0.00006   0.00025   0.00019   0.00043   1.90918
    A8        1.90875  -0.00006   0.00025   0.00018   0.00043   1.90918
    A9        1.94203   0.00036   0.00016   0.00283   0.00298   1.94501
   A10        1.86088  -0.00011  -0.00107  -0.00337  -0.00444   1.85644
   A11        1.92081  -0.00008   0.00019  -0.00004   0.00014   1.92095
   A12        1.92082  -0.00008   0.00019  -0.00005   0.00013   1.92095
   A13        1.91338  -0.00005   0.00011   0.00041   0.00051   1.91389
   A14        1.91337  -0.00005   0.00011   0.00041   0.00051   1.91388
   A15        1.96664   0.00037   0.00053   0.00279   0.00331   1.96995
   A16        1.85146  -0.00011  -0.00123  -0.00345  -0.00468   1.84678
   A17        1.90771  -0.00010   0.00020  -0.00027  -0.00008   1.90763
   A18        1.90771  -0.00010   0.00020  -0.00027  -0.00008   1.90763
   A19        1.90387  -0.00007   0.00013  -0.00014  -0.00002   1.90386
   A20        1.90382  -0.00007   0.00013  -0.00008   0.00004   1.90386
[...]
 ! D34   D(12,10,14,15)        -58.1171         -DE/DX =    0.0                 !
 ! D35   D(12,10,14,16)         62.2743         -DE/DX =    0.0                 !
 ! D36   D(12,10,14,17)       -178.5084         -DE/DX =    0.0                 !
 --------------------------------------------------------------------------------
 GradGradGradGradGradGradGradGradGradGradGradGradGradGradGradGradGradGrad

 1\1\GINC-CN0146\Freq\RM06\Aug-CC-pVTZ\C5H11Cl1\GRAHA682\07-Jul-2017\0\
 \#N Geom=AllCheck Guess=TCheck SCRF=Check GenChk RM06/Aug-CC-pVTZ Freq
 \\1chloro-pentane\\0,1\C,-5.5561425876,1.8629370052,-0.0002035208\H,-5
 .2323314353,2.4105910225,0.8838789596\H,-5.2325024052,2.410168974,-0.8
 846100122\C,-5.0430666778,0.4491953222,0.0000837757\H,-5.4319229072,-0
 .0784685479,0.8762200096\H,-5.4321103434,-0.0788894277,-0.8757154335\C
 ,-3.5266419518,0.4104865161,-0.0000690228\H,-3.1436894975,0.9498292687
 ,-0.8752860857\H,-3.1434984193,0.9502267016,0.874819932\C,-2.974539113
 3,-1.001180796,0.0001904573\H,-3.3606017708,-1.5366812507,0.8739768194
 \H,-3.3607991196,-1.5370795135,-0.8732643565\Cl,-7.3555133292,1.912406
 0612,-0.0000410514\C,-1.4612800737,-1.0317732603,0.0000254713\H,-1.073
 445626,-2.0504930182,0.0001939808\H,-1.0601857912,-0.5239427201,-0.879
 9611247\H,-1.0599886313,-0.523577907,0.8797111019\\Version=ES64L-G09Re
 vE.01\State=1-A\HF=-657.2715491\RMSD=7.984e-09\RMSF=7.379e-05\ZeroPoin
 t=0.1504737\Thermal=0.1585827\Dipole=0.8771614,-0.1818862,-0.0000426\D
 ipoleDeriv=0.8949348,-0.1877956,-0.0004105,-0.1129072,0.1754085,-0.000
 3441,0.0000607,-0.0001866,0.1552954,-0.0777069,-0.0124276,-0.0447299,-
 0.0042446,0.0143604,-0.0368465,-0.045828,-0.0668372,-0.0206636,-0.0777
 816,-0.0123071,0.0445535,-0.0039851,0.0142461,0.0365578,0.0457522,0.06
 68984,-0.0205567,-0.0713738,0.0644473,0.0001872,0.0044297,0.0360008,-0
 .0011294,-0.0000623,0.0001048,0.1399789,0.0069874,-0.0173102,0.0440234
 ,-0.0101647,-0.0109587,0.052587,0.0564936,0.0733826,-0.058202,0.00685,
 -0.0172882,-0.0436044,-0.0103155,-0.0111171,-0.0514711,-0.0565182,-0.0
 733481,-0.0575341,0.0708586,0.0215397,0.0003045,0.13278,0.0169797,-0.0
 006548,-0.0000891,-0.000123,0.1778396,-0.0099739,-0.0223147,0.0486882,
 -0.0259755,-0.0276932,0.0680076,0.0662495,0.0940522,-0.0814717,-0.0101
 598,-0.0222765,-0.0485992,-0.0260947,-0.0277654,-0.0671993,-0.0660027,
 -0.0940791,-0.0807421,0.0750298,0.0198929,0.0001493,-0.0563195,0.13073
 78,0.0004528,-0.0002501,0.0001508,0.154347,-0.0308828,-0.0332492,0.070
 9488,-0.007411,-0.0227609,0.0565739,0.0717719,0.0938561,-0.0764221,-0.
 0309235,-0.0333444,-0.0712331,-0.0074874,-0.0228536,-0.0569623,-0.0715
 669,-0.0940052,-0.0776451,-0.7217776,0.1878703,-0.0001385,0.0713556,-0
 .2182141,0.0003745,0.0000433,0.0000418,-0.1732154,0.0149909,0.0172405,
 -0.000052,0.0583442,0.0480145,-0.0000377,-0.0001616,0.0000636,0.100067
 4,-0.0334414,0.0684039,0.0002297,0.11618,-0.125765,0.0000311,0.0000219
 ,0.0001207,0.0706838,-0.0027788,-0.0105556,0.0291502,-0.0590298,0.0157
 273,0.0859162,0.0793223,0.0733787,-0.0757119,-0.0028515,-0.0105253,-0.
 0294672,-0.0591544,0.0156528,-0.0858555,-0.0792366,-0.0734705,-0.07604
 74\Polar=96.5460776,-11.0697296,77.2247666,-0.0116127,-0.0100659,66.88
 10014\PG=C01 [X(C5H11Cl1)]\NImag=0\\0.33433926,0.03599361,0.49806881,-
 0.00000330,0.00000497,0.57398410,-0.05880993,-0.03982503,-0.06298973,0
 .07480568,-0.03825898,-0.11410513,-0.10799223,0.03818232,0.12305274,-0
 .06292803,-0.10791893,-0.22917541,0.06586940,0.11820180,0.23924393,-0.
 05877925,-0.03977303,0.06299150,0.00468478,0.00469556,-0.00695267,0.07
 477571,-0.03822872,-0.11401133,0.10795660,0.00470444,0.00779143,-0.012
 92618,0.03813383,0.12294784,0.06292345,0.10787743,-0.22931250,0.006941
 00,0.01291362,-0.01900129,-0.06585820,-0.11815987,0.23938657,-0.072864
 05,0.03228027,-0.00000991,0.00393680,-0.00795146,0.00075597,0.00393601
 ,-0.00794765,-0.00075253,0.48106012,0.03630350,-0.20102749,0.00003197,
 0.00502563,-0.01611310,0.00019943,0.00502011,-0.01610260,-0.00019193,0
 .03863541,0.52078443,-0.00000398,0.00002612,-0.08236480,0.00881362,-0.
 02650391,0.00194874,-0.00882054,0.02651190,0.00194092,0.00000215,0.000
 00607,0.58181465,0.00226890,0.00683572,-0.01036241,0.00000904,-0.00065
 182,0.00039908,-0.00042028,0.00250635,0.00006254,-0.07528082,-0.043949
 99,0.07085530,0.08547077,-0.01047851,-0.01881477,0.02787234,-0.0004068
 1,0.00127022,-0.00034826,0.00223042,-0.00501402,-0.00063743,-0.0418100
 9,-0.10177555,0.09571286,0.04509976,0.11504758,-0.00021156,0.00013685,
 0.00087979,-0.00040631,0.00038801,0.00067047,0.00023430,-0.00046240,0.
 00140025,0.07015085,0.09707874,-0.21316107,-0.07797842,-0.10786425,0.2
 2737831,0.00228109,0.00684573,0.01035631,-0.00042299,0.00250351,-0.000
 06485,0.00000546,-0.00065262,-0.00039726,-0.07531027,-0.04400052,-0.07
 086307,0.00331367,0.00534869,0.00863288,0.08550153,-0.01048079,-0.0188
 2525,-0.02786678,0.00223102,-0.00501299,0.00064131,-0.00040475,0.00127
 309,0.00034654,-0.04186565,-0.10185349,-0.09575395,0.00534630,0.007040
 87,0.01219402,0.04515529,0.11513761,0.00022000,-0.00012732,0.00088696,
 -0.00023676,0.00046262,0.00139899,0.00040455,-0.00038857,0.00067147,-0
 .07015917,-0.09712334,-0.21303700,-0.00863921,-0.01220395,-0.02031871,
 0.07798557,0.10790519,0.22724166,-0.01864436,0.00859121,-0.00000146,0.
 00129484,-0.00150224,-0.00008344,0.00129582,-0.00150258,0.00008372,-0.
 19116866,-0.00585487,0.00001347,-0.01397974,-0.00043571,0.00032668,-0.
 01398544,-0.00043788,-0.00032205,0.48766705,0.02853994,-0.00024035,-0.
 00000795,0.00026202,0.00078484,0.00007405,0.00026152,0.00077750,-0.000
 07028,-0.00221818,-0.07964041,-0.00000240,-0.01515090,-0.00031114,-0.0
 0036456,-0.01515791,-0.00030143,0.00037015,0.03072980,0.50502947,-0.00
 000470,0.00000211,-0.00099518,0.00048594,-0.00028159,0.00005413,-0.000
 48107,0.00028627,0.00005051,0.00000980,0.00001495,-0.07888869,0.027438
 30,-0.00128517,0.00066665,-0.02743219,0.00127171,0.00066514,-0.0000023
 1,0.00001877,0.56921732,0.00059488,-0.00157581,0.00112844,-0.00001064,
 0.00006918,-0.00007732,-0.00017757,0.00089155,-0.00049983,-0.01365756,
 -0.01550165,0.02822842,-0.00630984,0.00064989,-0.00041745,0.00188024,-
 0.00008670,-0.00050372,-0.07530233,-0.04137975,0.06610435,0.08566236,0
 .00080179,0.00058466,-0.00082966,-0.00006700,-0.00000828,-0.00005859,0
 .00005318,0.00026635,0.00020460,-0.00033141,-0.00062825,-0.00089630,0.
 00048812,0.00030597,-0.00006592,-0.00005450,-0.00001921,0.00023868,-0.
 04163601,-0.10151278,0.09531033,0.04381250,0.11458554,-0.00030250,0.00
 044812,-0.00003122,0.00005129,0.00007045,-0.00008224,0.00035737,-0.000
 45042,0.00009648,0.00048631,-0.00049058,0.00047353,-0.00039963,-0.0001
 1562,0.00150092,0.00048259,-0.00021820,0.00059515,0.06697744,0.0951109
 4,-0.20681626,-0.07492455,-0.10686877,0.22216958,0.00060802,-0.0015697
 1,-0.00112326,-0.00018095,0.00088688,0.00049617,-0.00001543,0.00006959
 ,0.00007805,-0.01366304,-0.01550998,-0.02821812,0.00188070,-0.00008760
 ,0.00050391,-0.00631272,0.00064685,0.00041636,-0.07533166,-0.04142346,
 -0.06611402,0.00328721,0.00544776,0.00850154,0.08569101,0.00080889,0.0
 0058994,0.00083224,0.00005093,0.00026182,-0.00020752,-0.00006836,-0.00
 000591,0.00005756,-0.00033212,-0.00062301,0.00090047,-0.00005255,-0.00
 001622,-0.00023815,0.00048454,0.00029835,0.00006454,-0.04168809,-0.101
 59303,-0.09535867,0.00544892,0.00696477,0.01224972,0.04386515,0.114676
 11,0.00028782,-0.00045524,-0.00002592,-0.00035493,0.00044636,0.0000951
 1,-0.00004903,-0.00006608,-0.00008541,-0.00048192,0.00048320,0.0004818
 6,-0.00047690,0.00022862,0.00059071,0.00040074,0.00011751,0.00150277,-
 0.06698412,-0.09515760,-0.20670755,-0.00850417,-0.01225598,-0.02087171
 ,0.07493182,0.10690957,0.22204769,-0.00485949,-0.00191178,-0.00000192,
 0.00000772,0.00012199,0.00030007,0.00000929,0.00011918,-0.00029901,-0.
 01715956,0.03553534,-0.00000456,0.00163843,0.00049436,-0.00049017,0.00
 163922,0.00049302,0.00049034,-0.08799982,0.03529303,-0.00000995,0.0028
 9645,-0.00940734,-0.00017965,0.00289986,-0.00941337,0.00018302,0.49543
 198,-0.00017629,-0.00114058,0.00000523,0.00012773,-0.00006287,0.000154
 60,0.00012680,-0.00005626,-0.00015829,0.00535280,-0.00027603,-0.000001
 17,-0.00150882,0.00073153,0.00014018,-0.00151307,0.00072744,-0.0001408
 1,0.03430778,-0.18257898,0.00001530,0.00556295,-0.01807391,0.00056993,
 0.00556218,-0.01809027,-0.00055558,0.03677809,0.50313326,0.00001985,0.
 00000798,-0.00079267,0.00015277,0.00025227,0.00026660,-0.00016418,-0.0
 0025776,0.00027308,0.00000141,-0.00000119,-0.00052882,0.00074000,-0.00
 078487,0.00001338,-0.00074310,0.00078109,0.00001036,-0.00000709,0.0000
 2423,-0.07941850,-0.00981651,0.02679565,0.00036391,0.00980953,-0.02678
 988,0.00036879,0.00000363,0.00000602,0.57538906,0.00010792,0.00013923,
 -0.00011929,0.00001034,-0.00003211,-0.00000404,-0.00010876,-0.00005385
 ,0.00009653,0.00115187,0.00039697,-0.00095076,-0.00013373,0.00003535,0
 .00038361,-0.00004683,-0.00004628,-0.00009581,0.00288250,0.00565864,-0
 .00982516,-0.00060398,0.00245256,-0.00000701,0.00020405,-0.00072133,0.
 00034755,-0.07580210,-0.04198281,0.06767763,0.08592351,-0.00024814,0.0
 0005906,-0.00024476,-0.00003671,-0.00002830,0.00001872,-0.00002802,0.0
 0024926,-0.00013403,-0.00165287,0.00096844,0.00044947,0.00090371,0.000
 29167,-0.00047026,0.00010222,-0.00001929,-0.00004446,-0.00923965,-0.01
 839305,0.02689577,0.00247463,-0.00545927,-0.00020545,-0.00069017,0.001
 22589,-0.00036736,-0.04220323,-0.10342286,0.09606360,0.04423038,0.1157
 3234,-0.00015415,-0.00020120,0.00032702,0.00000048,-0.00001675,-0.0000
 2357,0.00010578,-0.00014562,-0.00003606,0.00019411,-0.00025425,-0.0000
 2343,-0.00058150,0.00025236,0.00013792,0.00004105,0.00007204,-0.000078
 91,-0.00033521,0.00064380,0.00040414,-0.00001631,-0.00031782,0.0015552
 7,-0.00033918,0.00043900,0.00065560,0.06859903,0.09641078,-0.20947515,
 -0.07619916,-0.10777271,0.22434504,0.00010757,0.00014000,0.00012357,-0
 .00010727,-0.00005453,-0.00009663,0.00001030,-0.00003025,0.00000286,0.
 00115141,0.00040117,0.00094852,-0.00004708,-0.00004970,0.00009613,-0.0
 0013443,0.00003504,-0.00038493,0.00288385,0.00566509,0.00982631,0.0002
 0441,-0.00072311,-0.00034681,-0.00060444,0.00245156,0.00000478,-0.0758
 3372,-0.04203657,-0.06769072,0.00336758,0.00556020,0.00852647,0.085959
 22,-0.00024840,0.00005838,0.00023741,-0.00002780,0.00025441,0.00013706
 ,-0.00003547,-0.00003132,-0.00001711,-0.00165285,0.00097272,-0.0004489
 1,0.00009893,-0.00002294,0.00004642,0.00090514,0.00029169,0.00046923,-
 0.00924545,-0.01840440,-0.02688166,-0.00069309,0.00122275,0.00036459,0
 .00247729,-0.00545774,0.00020404,-0.04225668,-0.10351053,-0.09609587,0
 .00555919,0.00707478,0.01229766,0.04429026,0.11583005,0.00013777,0.000
 19412,0.00032024,-0.00010028,0.00015438,-0.00002961,0.00000431,0.00001
 367,-0.00002316,-0.00019395,0.00025412,-0.00002644,-0.00004472,-0.0000
 7923,-0.00007863,0.00058618,-0.00024458,0.00013865,0.00033952,-0.00063
 963,0.00043001,0.00033562,-0.00044270,0.00064564,0.00002240,0.00032678
 ,0.00154855,-0.06861239,-0.09644433,-0.20934726,-0.00853535,-0.0123155
 2,-0.02097202,0.07621336,0.10781017,0.22420533,-0.12600965,-0.00553529
 ,0.00001372,-0.02519103,0.00190539,0.00232521,-0.02518980,0.00190722,-
 0.00232179,-0.03197214,0.00013066,0.00000089,0.00138123,-0.00067456,-0
 .00070403,0.00138060,-0.00067198,0.00070347,0.00175294,0.00817975,0.00
 000087,0.00049082,-0.00014946,0.00000200,0.00048939,-0.00014940,-0.000
 00127,-0.00193272,-0.00205802,-0.00000282,-0.00002303,0.00022344,-0.00
 018826,-0.00002213,0.00022410,0.00019145,0.20524980,-0.00541106,-0.032
 32080,-0.00000282,-0.01019191,0.00187177,0.00212184,-0.01018262,0.0018
 6930,-0.00211818,0.02824381,0.00210501,-0.00000216,-0.00004093,0.00134
 868,-0.00024178,-0.00004086,0.00134527,0.00024228,0.00023945,-0.004296
 28,-0.00000365,0.00018222,-0.00002492,-0.00023671,0.00018215,-0.000026
 03,0.00024004,0.00142241,0.00078190,-0.00000042,-0.00005192,0.00001364
 ,0.00006553,-0.00005313,0.00001283,-0.00006567,-0.00453321,0.02796636,
 0.00001334,0.00000237,-0.03433344,-0.01820068,0.00181504,0.00466097,0.
 01820745,-0.00181754,0.00466227,-0.00000329,-0.00000353,0.00063347,-0.
 00050315,-0.00067106,0.00010780,0.00050439,0.00067344,0.00010908,0.000
 00048,0.00000138,0.00094693,-0.00049742,-0.00002061,0.00013385,0.00049
 627,0.00002039,0.00013258,0.00000048,-0.00000069,0.00041584,0.00003958
 ,-0.00007804,-0.00000241,-0.00004079,0.00007958,-0.00000179,-0.0000172
 7,0.00000030,0.02255204,-0.00008084,-0.00042419,-0.00000215,-0.0000063
 3,0.00003877,0.00002437,-0.00000782,0.00003800,-0.00002323,0.00000078,
 0.00120778,-0.00000313,-0.00004025,0.00009521,-0.00003502,-0.00003876,
 0.00009703,0.00003641,-0.01788986,0.00584439,0.00000232,0.00114680,-0.
 00153224,0.00011169,0.00114806,-0.00153045,-0.00011029,-0.20401999,0.0
 0047711,0.00001198,-0.01363972,0.00037984,-0.00012210,-0.01364555,0.00
 038023,0.00012694,-0.00001759,0.00003935,0.00000118,0.47887275,0.00105
 081,0.00110437,0.00001233,-0.00002348,0.00004788,-0.00008279,-0.000025
 19,0.00005801,0.00007677,0.00129714,-0.00693814,0.00000154,-0.00001232
 ,0.00004147,-0.00030214,-0.00001797,0.00004096,0.00029822,0.03636306,-
 0.00198509,-0.00000179,0.00036850,0.00130816,-0.00037272,0.00036207,0.
 00130410,0.00037457,-0.00337785,-0.07824331,-0.00000509,-0.01616922,0.
 00081831,-0.00078123,-0.01618144,0.00082027,0.00078994,0.00127009,-0.0
 0065514,-0.00000359,-0.00427137,0.56635344,0.00001261,0.00000794,0.000
 66585,-0.00001988,0.00009381,-0.00003631,0.00001330,-0.00009830,-0.000
 03115,-0.00000236,-0.00000004,-0.00042371,-0.00025827,-0.00014000,0.00
 027667,0.00025895,0.00013929,0.00027760,-0.00000924,0.00000246,0.00001
 699,-0.00093551,0.00014790,0.00008741,0.00093468,-0.00015059,0.0000850
 1,0.00001624,-0.00000583,-0.07762996,0.02833220,-0.00166949,0.00101465
 ,-0.02832258,0.00167597,0.00102916,-0.00000247,-0.00000118,-0.00000704
 ,0.00000786,-0.00000497,0.55225223,-0.00033522,-0.00038907,0.00000217,
 0.00000366,-0.00001094,0.00002936,0.00000427,-0.00000861,-0.00003097,-
 0.00012310,0.00233759,0.00000107,0.00005044,-0.00001836,0.00008778,0.0
 0004843,-0.00002150,-0.00008855,-0.00707938,-0.00197028,-0.00000174,0.
 00010996,-0.00021730,-0.00023824,0.00010775,-0.00021937,0.00024071,-0.
 00980764,0.03230407,-0.00000671,0.00158311,-0.00040826,0.00044049,0.00
 158229,-0.00040859,-0.00044008,-0.00048575,0.00023589,-0.00000059,-0.0
 7634349,0.08490891,-0.00001535,0.08354446,-0.00006407,0.00011485,-0.00
 000543,0.00000029,-0.00000307,0.00000131,-0.00000049,-0.00000636,0.000
 00120,-0.00031938,-0.00008251,-0.00000262,0.00006908,0.00000199,-0.000
 02243,0.00007202,0.00000364,0.00002499,0.00051229,0.00107358,0.0000001
 6,-0.00015020,0.00017997,-0.00014638,-0.00014737,0.00018271,0.00014707
 ,-0.00104649,0.00179116,-0.00000114,0.00051502,0.00026923,-0.00018730,
 0.00051554,0.00026923,0.00018778,0.00012098,-0.00005054,0.00000208,0.0
 8503295,-0.28021181,0.00003742,-0.09370999,0.30126142,0.00000028,-0.00
 000149,0.00002745,-0.00000292,-0.00000867,-0.00000027,-0.00000012,0.00
 000598,0.00000200,0.00000151,-0.00000856,0.00060098,-0.00009472,0.0000
 1510,-0.00002470,0.00009737,-0.00000702,-0.00002066,0.00000261,-0.0000
 0475,0.00027725,0.00004664,-0.00041780,0.00020655,-0.00004616,0.000423
 80,0.00021067,0.00000276,-0.00000199,-0.00127464,-0.00015770,-0.000299
 45,0.00004026,0.00015464,0.00029770,0.00003147,-0.00000176,0.00000263,
 -0.00001810,-0.00001579,0.00003887,-0.04643462,0.00001724,-0.00004389,
 0.04428603,0.00003533,0.00008839,-0.00011426,-0.00000154,-0.00000186,0
 .00000342,-0.00001982,0.00005926,-0.00000387,-0.00001938,-0.00008840,-
 0.00022719,0.00024271,0.00004495,-0.00016179,-0.00004262,-0.00003601,0
 .00001169,0.00180173,-0.00156708,0.00085118,-0.00016511,0.00093116,-0.
 00060114,-0.00004364,0.00013268,-0.00003135,-0.01355116,-0.01565566,0.
 02825334,-0.00681351,0.00068127,-0.00047025,0.00194155,-0.00004916,-0.
 00050103,0.00005006,-0.00002023,-0.00000409,-0.07770251,-0.04274312,0.
 07390392,0.00356893,0.00429724,-0.01004883,0.08713400,0.00004654,-0.00
 004781,0.00000640,-0.00000062,-0.00000158,-0.00000187,-0.00000357,-0.0
 0000190,0.00000695,0.00013599,0.00011207,-0.00013195,0.00006024,-0.000
 10335,0.00004297,-0.00003904,-0.00002039,-0.00000289,0.00039941,0.0007
 9392,-0.00097317,-0.00001844,0.00035741,0.00023301,-0.00005306,-0.0000
 4700,-0.00005729,-0.00032030,-0.00085419,-0.00071342,0.00019459,0.0007
 4499,-0.00039426,-0.00012490,-0.00012592,0.00010565,-0.00009496,0.0000
 2998,-0.00000176,-0.04290985,-0.10189021,0.09874027,-0.01119917,-0.012
 39216,0.02424802,0.04777251,0.10639412,0.00003665,0.00002202,-0.000027
 99,0.00000750,-0.00000364,-0.00000931,0.00001119,-0.00000271,0.0000154
 4,-0.00005163,-0.00030278,0.00027883,-0.00016468,0.00005032,-0.0000210
 3,-0.00001150,-0.00000196,-0.00002047,-0.00049494,0.00006505,0.0000472
 2,0.00044667,-0.00047717,0.00008148,0.00009401,0.00004328,-0.00010474,
 0.00024473,-0.00041645,0.00067532,-0.00038098,-0.00007777,0.00152620,0
 .00060207,-0.00025336,0.00060839,0.00003681,-0.00003137,0.00000398,0.0
 7399258,0.09835591,-0.21563152,-0.00125256,-0.00114667,0.00104243,-0.0
 8198323,-0.10845700,0.23150358,0.00003982,0.00008975,0.00011199,-0.000
 02218,0.00006035,0.00000393,-0.00000290,-0.00000514,-0.00000147,-0.000
 01839,-0.00008877,0.00022790,-0.00004416,-0.00003728,-0.00001138,0.000
 24381,0.00004701,0.00016180,0.00180252,-0.00156661,-0.00084794,-0.0000
 4609,0.00013129,0.00002931,-0.00016417,0.00093238,0.00059755,-0.013556
 74,-0.01566828,-0.02823903,0.00194079,-0.00004864,0.00049872,-0.006813
 58,0.00068236,0.00047026,0.00004900,-0.00001939,0.00000413,-0.07773568
 ,-0.04279861,-0.07391409,0.00357130,0.00430258,0.01004497,0.00358498,0
 .00615464,0.00886731,0.08717166,0.00004989,-0.00004655,-0.00000985,-0.
 00000502,0.00000021,-0.00000598,0.00000008,-0.00000308,0.00000248,0.00
 013623,0.00011790,0.00013495,-0.00004087,-0.00002199,0.00000472,0.0000
 5936,-0.00010687,-0.00004455,0.00039949,0.00079765,0.00097033,-0.00005
 467,-0.00004896,0.00005807,-0.00001857,0.00035551,-0.00023587,-0.00032
 037,-0.00085550,0.00071879,-0.00012441,-0.00012485,-0.00011002,0.00019
 475,0.00074573,0.00039504,-0.00009475,0.00002895,0.00000227,-0.0429625
 6,-0.10197325,-0.09877467,-0.01120502,-0.01240131,-0.02423848,0.006154
 07,0.00705204,0.01263431,0.04783236,0.10648436,-0.00004354,-0.00002584
 ,-0.00003228,-0.00001050,0.00000842,0.00001905,-0.00000396,0.00000104,
 -0.00000942,0.00005266,0.00030772,0.00028098,0.00000839,-0.00000177,-0
 .00001871,0.00016591,-0.00004967,-0.00002208,0.00049594,-0.00006365,0.
 00004989,-0.00009733,-0.00004584,-0.00010834,-0.00044398,0.00047746,0.
 00007601,-0.00024264,0.00042309,0.00069067,-0.00060186,0.00025176,0.00
 060545,0.00038376,0.00007707,0.00152148,-0.00003475,0.00003134,0.00000
 397,-0.07400361,-0.09839381,-0.21551124,0.00125597,0.00115386,0.001047
 89,-0.00887650,-0.01264966,-0.01996783,0.08199604,0.10849847,0.2313745
 2\\-0.00031753,-0.00003437,-0.00000015,0.00006393,0.00003063,-0.000016
 78,0.00006405,0.00003069,0.00001677,0.00014418,0.00012450,-0.00000023,
 -0.00002907,-0.00003129,-0.00000736,-0.00002929,-0.00003115,0.00000754
 ,-0.00011482,-0.00015973,0.00000011,0.00003464,0.00003312,0.00000015,0
 .00003501,0.00003317,0.00000008,0.00011005,0.00010950,0.00000011,-0.00
 003723,-0.00003245,-0.00000482,-0.00003713,-0.00003257,0.00000494,0.00
 018942,0.00001622,-0.00000007,-0.00011676,-0.00003143,-0.00000024,-0.0
 0000167,0.00000886,-0.00000001,0.00002123,-0.00001672,0.00001313,0.000
 02099,-0.00001699,-0.00001315\\\@


 EDUCATION WITHOUT COMMON SENSE IS A LOAD OF BOOKS ON THE BACK OF AN ASS.
 Job cpu time:       0 days 18 hours 18 minutes 32.3 seconds.
 File lengths (MBytes):  RWF=    447 Int=      0 D2E=      0 Chk=     21 Scr=      1
 Normal termination of Gaussian 09 at Fri Jul  7 01:23:29 2017.
93980.46user 339.62system 1:05:41elapsed 2392%CPU (0avgtext+0avgdata 5931536maxresident)k
479376inputs+3957096outputs (405major+160828452minor)pagefaults 0swaps
