 Entering Gaussian System, Link 0=g09
 Initial command:
 /soft/gaussian/g09.d01_itasca/g09/l1.exe "/scratch/jgoodpas/2033998.node1081.localdomain/Gau-22799.inp" -scrdir="/scratch/jgoodpas/2033998.node1081.localdomain/"
 Entering Link 1 = /soft/gaussian/g09.d01_itasca/g09/l1.exe PID=     22800.
  
 Copyright (c) 1988,1990,1992,1993,1995,1998,2003,2009,2013,
            Gaussian, Inc.  All Rights Reserved.
  
 This is part of the Gaussian(R) 09 program.  It is based on
 the Gaussian(R) 03 system (copyright 2003, Gaussian, Inc.),
 the Gaussian(R) 98 system (copyright 1998, Gaussian, Inc.),
 the Gaussian(R) 94 system (copyright 1995, Gaussian, Inc.),
 the Gaussian 92(TM) system (copyright 1992, Gaussian, Inc.),
 the Gaussian 90(TM) system (copyright 1990, Gaussian, Inc.),
 the Gaussian 88(TM) system (copyright 1988, Gaussian, Inc.),
 the Gaussian 86(TM) system (copyright 1986, Carnegie Mellon
 University), and the Gaussian 82(TM) system (copyright 1983,
 Carnegie Mellon University). Gaussian is a federally registered
 trademark of Gaussian, Inc.
  
 This software contains proprietary and confidential information,
 including trade secrets, belonging to Gaussian, Inc.
  
 This software is provided under written license and may be
 used, copied, transmitted, or stored only in accord with that
 written license.
  
 The following legend is applicable only to US Government
 contracts under FAR:
  
                    RESTRICTED RIGHTS LEGEND
  
 Use, reproduction and disclosure by the US Government is
 subject to restrictions as set forth in subparagraphs (a)
 and (c) of the Commercial Computer Software - Restricted
 Rights clause in FAR 52.227-19.
  
 Gaussian, Inc.
 340 Quinnipiac St., Bldg. 40, Wallingford CT 06492
  
  
 ---------------------------------------------------------------
 Warning -- This program may not be used in any manner that
 competes with the business of Gaussian, Inc. or will provide
 assistance to any competitor of Gaussian, Inc.  The licensee
 of this program is prohibited from giving any competitor of
 Gaussian, Inc. access to this program.  By using this program,
 the user acknowledges that Gaussian, Inc. is engaged in the
 business of creating and licensing software in the field of
 computational chemistry and represents and warrants to the
 licensee that it is not a competitor of Gaussian, Inc. and that
 it will not use this program in any manner prohibited above.
 ---------------------------------------------------------------
  

 Cite this work as:
 Gaussian 09, Revision D.01,
 M. J. Frisch, G. W. Trucks, H. B. Schlegel, G. E. Scuseria, 
 M. A. Robb, J. R. Cheeseman, G. Scalmani, V. Barone, B. Mennucci, 
 G. A. Petersson, H. Nakatsuji, M. Caricato, X. Li, H. P. Hratchian, 
 A. F. Izmaylov, J. Bloino, G. Zheng, J. L. Sonnenberg, M. Hada, 
 M. Ehara, K. Toyota, R. Fukuda, J. Hasegawa, M. Ishida, T. Nakajima, 
 Y. Honda, O. Kitao, H. Nakai, T. Vreven, J. A. Montgomery, Jr., 
 J. E. Peralta, F. Ogliaro, M. Bearpark, J. J. Heyd, E. Brothers, 
 K. N. Kudin, V. N. Staroverov, T. Keith, R. Kobayashi, J. Normand, 
 K. Raghavachari, A. Rendell, J. C. Burant, S. S. Iyengar, J. Tomasi, 
 M. Cossi, N. Rega, J. M. Millam, M. Klene, J. E. Knox, J. B. Cross, 
 V. Bakken, C. Adamo, J. Jaramillo, R. Gomperts, R. E. Stratmann, 
 O. Yazyev, A. J. Austin, R. Cammi, C. Pomelli, J. W. Ochterski, 
 R. L. Martin, K. Morokuma, V. G. Zakrzewski, G. A. Voth, 
 P. Salvador, J. J. Dannenberg, S. Dapprich, A. D. Daniels, 
 O. Farkas, J. B. Foresman, J. V. Ortiz, J. Cioslowski, 
 and D. J. Fox, Gaussian, Inc., Wallingford CT, 2013.
 
 ******************************************
 Gaussian 09:  ES64L-G09RevD.01 24-Apr-2013
                17-Oct-2017 
 ******************************************
 %LindaWorkers=ic-node0150
 %Mem=11800mb
 %NProcShared=8
 Will use up to    8 processors via shared memory.
 %chk=dimer.chk
 SetLPE:  input flags=" -workerwait 250000 -opt "Tsnet.Node.lindarsharg: ssh " "
 SetLPE:    new flags=" -workerwait 250000 -opt "Tsnet.Node.lindarsharg: ssh "  -nodelist 'ic-node0150'"
 Will use up to    1 processors via Linda.
 -------------------------------------------------------------
 # Opt=(Z-mat,maxcycle=200) m06/def2svp Integral=SuperFineGrid
 -------------------------------------------------------------
 1/6=200,10=7,14=-1,18=40,26=5,38=1/1,3;
 2/12=2,17=6,18=5,29=3,40=1/2;
 3/5=43,7=101,11=2,16=1,25=1,30=1,71=1,74=-54,75=-7/1,2,3;
 4//1;
 5/5=2,38=5/2;
 6/7=2,8=2,9=2,10=2,28=1/1;
 7/29=1/1,2,3,16;
 1/6=200,10=7,14=-1,18=40,26=5/3(2);
 2/29=3/2;
 99//99;
 2/29=3/2;
 3/5=43,7=101,11=2,16=1,25=1,30=1,71=1,74=-54,75=-7/1,2,3;
 4/5=5,16=3,69=1/1;
 5/5=2,38=5/2;
 7//1,2,3,16;
 1/6=200,14=-1,18=40,26=5/3(-5);
 2/29=3/2;
 6/7=2,8=2,9=2,10=2,19=2,28=1/1;
 99/9=1/99;
 ------
 C12H24
 ------
 Symbolic Z-matrix:
 Charge =  0 Multiplicity = 1
 C
 C                    1    B1
 H                    1    B2       2    A2
 H                    1    B3       2    A3       3    D3       0
 H                    1    B4       2    A4       3    D4       0
 C                    2    B5       1    A5       3    D5       0
 H                    2    B6       1    A6       3    D6       0
 H                    2    B7       1    A7       3    D7       0
 C                    6    B8       2    A8       1    D8       0
 H                    6    B9       2    A9       1    D9       0
 H                    6    B10      2    A10      1    D10      0
 C                    9    B11      6    A11      2    D11      0
 H                    9    B12      6    A12      2    D12      0
 H                    9    B13      6    A13      2    D13      0
 C                    12   B14      9    A14      6    D14      0
 H                    12   B15      9    A15      6    D15      0
 H                    12   B16      9    A16      6    D16      0
 C                    15   B17      12   A17      9    D17      0
 H                    15   B18      12   A18      9    D18      0
 H                    15   B19      12   A19      9    D19      0
 C                    18   B20      15   A20      12   D20      0
 H                    18   B21      15   A21      12   D21      0
 H                    18   B22      15   A22      12   D22      0
 C                    21   B23      18   A23      15   D23      0
 H                    21   B24      18   A24      15   D24      0
 H                    21   B25      18   A25      15   D25      0
 C                    24   B26      21   A26      18   D26      0
 H                    24   B27      21   A27      18   D27      0
 H                    24   B28      21   A28      18   D28      0
 C                    27   B29      24   A29      21   D29      0
 H                    27   B30      24   A30      21   D30      0
 H                    27   B31      24   A31      21   D31      0
 C                    30   B32      27   A32      24   D32      0
 H                    33   B33      30   A33      27   D33      0
 H                    33   B34      30   A34      27   D34      0
 H                    30   B35      27   A35      24   D35      0
       Variables:
  B1                    1.52037                  
  B2                    1.09449                  
  A2                  110.2615                   
  B3                    1.09469                  
  A3                  110.99941                  
  D3                  240.2622                   
  B4                    1.09468                  
  A4                  111.00291                  
  D4                  119.74267                  
  B5                    1.52846                  
  A5                  111.49348                  
  D5                  180.02355                  
  B6                    1.09622                  
  A6                  109.14402                  
  D6                   58.466                    
  B7                    1.09622                  
  A7                  109.14651                  
  D7                  301.57536                  
  B8                    1.52957                  
  A8                  111.33085                  
  D8                  180.06732                  
  B9                    1.09685                  
  A9                  109.56808                  
  D9                   58.69294                  
  B10                   1.09685                  
  A10                 109.56982                  
  D10                 301.43153                  
  B11                   1.52959                  
  A11                 111.32932                  
  D11                 180.0495                   
  B12                   1.09682                  
  A12                 109.56214                  
  D12                  58.69169                  
  B13                   1.09682                  
  A13                 109.57144                  
  D13                 301.40424                  
  B14                   1.52958                  
  A14                 111.33412                  
  D14                 180.11548                  
  B15                   1.09681                  
  A15                 109.56324                  
  D15                  58.75236                  
  B16                   1.09681                  
  A16                 109.56894                  
  D16                 301.4668                   
  B17                   1.52958                  
  A17                 111.32441                  
  D17                 180.06818                  
  B18                   1.09681                  
  A18                 109.56207                  
  D18                  58.71257                  
  B19                   1.09681                  
  A19                 109.57415                  
  D19                 301.42268                  
  B20                   1.5296                   
  A20                 111.33392                  
  D20                 180.12584                  
  B21                   1.09681                  
  A21                 109.56096                  
  D21                  58.76319                  
  B22                   1.09681                  
  A22                 109.57002                  
  D22                 301.47796                  
  B23                   1.53006                  
  A23                 111.33208                  
  D23                 180.06793                  
  B24                   1.09681                  
  A24                 109.55355                  
  D24                  58.71484                  
  B25                   1.09681                  
  A25                 109.57481                  
  D25                 301.41764                  
  B26                   1.52997                  
  A26                 111.27387                  
  D26                 180.07455                  
  B27                   1.09745                  
  A27                 109.45602                  
  D27                  58.51678                  
  B28                   1.09744                  
  A28                 109.4982                   
  D28                 301.54273                  
  B29                   1.50175                  
  A29                 111.29171                  
  D29                 180.59371                  
  B30                   1.0969                   
  A30                 109.65896                  
  D30                  57.82495                  
  B31                   1.09657                  
  A31                 109.82846                  
  D31                 300.6713                   
  B32                   1.33889                  
  A32                 124.10415                  
  D32                 241.95558                  
  B33                   1.08555                  
  A33                 121.75919                  
  B34                   1.08571                  
  A34                 120.7488                   
  B35                   1.08828                  
  A35                 116.90896                  
  D35                  62.58421                  
       Constants:
  D33                  15.                       
  D34                 195.                       
 

 GradGradGradGradGradGradGradGradGradGradGradGradGradGradGradGradGradGrad
 Berny optimization.
 Initialization pass.
                       ----------------------------
                       !    Initial Parameters    !
                       ! (Angstroms and Degrees)  !
 ----------------------                            ----------------------
 !      Name          Value   Derivative information (Atomic Units)     !
 ------------------------------------------------------------------------
 !       B1          1.5204   estimate D2E/DX2                          !
 !       B2          1.0945   estimate D2E/DX2                          !
 !       A2        110.2615   estimate D2E/DX2                          !
 !       B3          1.0947   estimate D2E/DX2                          !
 !       A3        110.9994   estimate D2E/DX2                          !
 !       D3        240.2622   estimate D2E/DX2                          !
 !       B4          1.0947   estimate D2E/DX2                          !
 !       A4        111.0029   estimate D2E/DX2                          !
 !       D4        119.7427   estimate D2E/DX2                          !
 !       B5          1.5285   estimate D2E/DX2                          !
 !       A5        111.4935   estimate D2E/DX2                          !
 !       D5        180.0236   estimate D2E/DX2                          !
 !       B6          1.0962   estimate D2E/DX2                          !
 !       A6        109.144    estimate D2E/DX2                          !
 !       D6         58.466    estimate D2E/DX2                          !
 !       B7          1.0962   estimate D2E/DX2                          !
 !       A7        109.1465   estimate D2E/DX2                          !
 !       D7        301.5754   estimate D2E/DX2                          !
 !       B8          1.5296   estimate D2E/DX2                          !
 !       A8        111.3308   estimate D2E/DX2                          !
 !       D8        180.0673   estimate D2E/DX2                          !
 !       B9          1.0969   estimate D2E/DX2                          !
 !       A9        109.5681   estimate D2E/DX2                          !
 !       D9         58.6929   estimate D2E/DX2                          !
 !       B10         1.0969   estimate D2E/DX2                          !
 !       A10       109.5698   estimate D2E/DX2                          !
 !       D10       301.4315   estimate D2E/DX2                          !
 !       B11         1.5296   estimate D2E/DX2                          !
 !       A11       111.3293   estimate D2E/DX2                          !
 !       D11       180.0495   estimate D2E/DX2                          !
 !       B12         1.0968   estimate D2E/DX2                          !
 !       A12       109.5621   estimate D2E/DX2                          !
 !       D12        58.6917   estimate D2E/DX2                          !
 !       B13         1.0968   estimate D2E/DX2                          !
 !       A13       109.5714   estimate D2E/DX2                          !
 !       D13       301.4042   estimate D2E/DX2                          !
 !       B14         1.5296   estimate D2E/DX2                          !
 !       A14       111.3341   estimate D2E/DX2                          !
 !       D14       180.1155   estimate D2E/DX2                          !
 !       B15         1.0968   estimate D2E/DX2                          !
 !       A15       109.5632   estimate D2E/DX2                          !
 !       D15        58.7524   estimate D2E/DX2                          !
 !       B16         1.0968   estimate D2E/DX2                          !
 !       A16       109.5689   estimate D2E/DX2                          !
 !       D16       301.4668   estimate D2E/DX2                          !
 !       B17         1.5296   estimate D2E/DX2                          !
 !       A17       111.3244   estimate D2E/DX2                          !
 !       D17       180.0682   estimate D2E/DX2                          !
 !       B18         1.0968   estimate D2E/DX2                          !
 !       A18       109.5621   estimate D2E/DX2                          !
 !       D18        58.7126   estimate D2E/DX2                          !
 !       B19         1.0968   estimate D2E/DX2                          !
 !       A19       109.5742   estimate D2E/DX2                          !
 !       D19       301.4227   estimate D2E/DX2                          !
 !       B20         1.5296   estimate D2E/DX2                          !
 !       A20       111.3339   estimate D2E/DX2                          !
 !       D20       180.1258   estimate D2E/DX2                          !
 !       B21         1.0968   estimate D2E/DX2                          !
 !       A21       109.561    estimate D2E/DX2                          !
 !       D21        58.7632   estimate D2E/DX2                          !
 !       B22         1.0968   estimate D2E/DX2                          !
 !       A22       109.57     estimate D2E/DX2                          !
 !       D22       301.478    estimate D2E/DX2                          !
 !       B23         1.5301   estimate D2E/DX2                          !
 !       A23       111.3321   estimate D2E/DX2                          !
 !       D23       180.0679   estimate D2E/DX2                          !
 !       B24         1.0968   estimate D2E/DX2                          !
 !       A24       109.5536   estimate D2E/DX2                          !
 !       D24        58.7148   estimate D2E/DX2                          !
 !       B25         1.0968   estimate D2E/DX2                          !
 !       A25       109.5748   estimate D2E/DX2                          !
 !       D25       301.4176   estimate D2E/DX2                          !
 !       B26         1.53     estimate D2E/DX2                          !
 !       A26       111.2739   estimate D2E/DX2                          !
 !       D26       180.0745   estimate D2E/DX2                          !
 !       B27         1.0975   estimate D2E/DX2                          !
 !       A27       109.456    estimate D2E/DX2                          !
 !       D27        58.5168   estimate D2E/DX2                          !
 !       B28         1.0974   estimate D2E/DX2                          !
 !       A28       109.4982   estimate D2E/DX2                          !
 !       D28       301.5427   estimate D2E/DX2                          !
 !       B29         1.5018   estimate D2E/DX2                          !
 !       A29       111.2917   estimate D2E/DX2                          !
 !       D29       180.5937   estimate D2E/DX2                          !
 !       B30         1.0969   estimate D2E/DX2                          !
 !       A30       109.659    estimate D2E/DX2                          !
 !       D30        57.8249   estimate D2E/DX2                          !
 !       B31         1.0966   estimate D2E/DX2                          !
 !       A31       109.8285   estimate D2E/DX2                          !
 !       D31       300.6713   estimate D2E/DX2                          !
 !       B32         1.3389   estimate D2E/DX2                          !
 !       A32       124.1042   estimate D2E/DX2                          !
 !       D32       241.9556   estimate D2E/DX2                          !
 !       B33         1.0856   estimate D2E/DX2                          !
 !       A33       121.7592   estimate D2E/DX2                          !
 !       B34         1.0857   estimate D2E/DX2                          !
 !       A34       120.7488   estimate D2E/DX2                          !
 !       B35         1.0883   estimate D2E/DX2                          !
 !       A35       116.909    estimate D2E/DX2                          !
 !       D35        62.5842   estimate D2E/DX2                          !
 !       D33        15.0      Frozen                                    !
 !       D34       195.0      Frozen                                    !
 ------------------------------------------------------------------------
 Trust Radius=3.00D-01 FncErr=1.00D-07 GrdErr=1.00D-07
 Number of steps in this run=    200 maximum allowed number of steps=    204.
 GradGradGradGradGradGradGradGradGradGradGradGradGradGradGradGradGradGrad

 ---------------------------------------------------------------------------------------------------
                            Z-MATRIX (ANGSTROMS AND DEGREES)
   CD    Cent   Atom    N1       Length/X        N2       Alpha/Y        N3        Beta/Z          J
 ---------------------------------------------------------------------------------------------------
      1      1  C 
      2      2  C        1   1.520370(     1)
      3      3  H        1   1.094490(     2)      2  110.262(    36)
      4      4  H        1   1.094690(     3)      2  110.999(    37)      3  240.262(    70)      0
      5      5  H        1   1.094680(     4)      2  111.003(    38)      3  119.743(    71)      0
      6      6  C        2   1.528460(     5)      1  111.493(    39)      3  180.024(    72)      0
      7      7  H        2   1.096220(     6)      1  109.144(    40)      3   58.466(    73)      0
      8      8  H        2   1.096220(     7)      1  109.147(    41)      3  301.575(    74)      0
      9      9  C        6   1.529570(     8)      2  111.331(    42)      1  180.067(    75)      0
     10     10  H        6   1.096850(     9)      2  109.568(    43)      1   58.693(    76)      0
     11     11  H        6   1.096850(    10)      2  109.570(    44)      1  301.432(    77)      0
     12     12  C        9   1.529590(    11)      6  111.329(    45)      2  180.050(    78)      0
     13     13  H        9   1.096820(    12)      6  109.562(    46)      2   58.692(    79)      0
     14     14  H        9   1.096820(    13)      6  109.571(    47)      2  301.404(    80)      0
     15     15  C       12   1.529580(    14)      9  111.334(    48)      6  180.115(    81)      0
     16     16  H       12   1.096810(    15)      9  109.563(    49)      6   58.752(    82)      0
     17     17  H       12   1.096810(    16)      9  109.569(    50)      6  301.467(    83)      0
     18     18  C       15   1.529580(    17)     12  111.324(    51)      9  180.068(    84)      0
     19     19  H       15   1.096810(    18)     12  109.562(    52)      9   58.713(    85)      0
     20     20  H       15   1.096810(    19)     12  109.574(    53)      9  301.423(    86)      0
     21     21  C       18   1.529600(    20)     15  111.334(    54)     12  180.126(    87)      0
     22     22  H       18   1.096810(    21)     15  109.561(    55)     12   58.763(    88)      0
     23     23  H       18   1.096810(    22)     15  109.570(    56)     12  301.478(    89)      0
     24     24  C       21   1.530060(    23)     18  111.332(    57)     15  180.068(    90)      0
     25     25  H       21   1.096810(    24)     18  109.554(    58)     15   58.715(    91)      0
     26     26  H       21   1.096810(    25)     18  109.575(    59)     15  301.418(    92)      0
     27     27  C       24   1.529970(    26)     21  111.274(    60)     18  180.075(    93)      0
     28     28  H       24   1.097450(    27)     21  109.456(    61)     18   58.517(    94)      0
     29     29  H       24   1.097440(    28)     21  109.498(    62)     18  301.543(    95)      0
     30     30  C       27   1.501750(    29)     24  111.292(    63)     21  180.594(    96)      0
     31     31  H       27   1.096900(    30)     24  109.659(    64)     21   57.825(    97)      0
     32     32  H       27   1.096570(    31)     24  109.828(    65)     21  300.671(    98)      0
     33     33  C       30   1.338890(    32)     27  124.104(    66)     24  241.956(    99)      0
     34     34  H       33   1.085550(    33)     30  121.759(    67)     27   15.000(   100)      0
     35     35  H       33   1.085710(    34)     30  120.749(    68)     27  195.000(   101)      0
     36     36  H       30   1.088280(    35)     27  116.909(    69)     24   62.584(   102)      0
 ---------------------------------------------------------------------------------------------------
                         Z-Matrix orientation:                         
 ---------------------------------------------------------------------
 Center     Atomic      Atomic             Coordinates (Angstroms)
 Number     Number       Type             X           Y           Z
 ---------------------------------------------------------------------
      1          6           0        0.000000    0.000000    0.000000
      2          6           0        0.000000    0.000000    1.520370
      3          1           0        1.026765    0.000000   -0.379028
      4          1           0       -0.506937    0.887394   -0.392291
      5          1           0       -0.506996   -0.887322   -0.392350
      6          6           0       -1.422170   -0.000585    2.080391
      7          1           0        0.541621    0.882669    1.879869
      8          1           0        0.542250   -0.882265    1.879914
      9          6           0       -1.417829    0.001091    3.609954
     10          1           0       -1.960390   -0.883823    1.715305
     11          1           0       -1.961845    0.881033    1.713538
     12          6           0       -2.841064   -0.000725    4.170352
     13          1           0       -0.880476    0.884957    3.974709
     14          1           0       -0.877544   -0.880117    3.976802
     15          6           0       -2.836857    0.003823    5.699919
     16          1           0       -3.377699   -0.885606    3.807035
     17          1           0       -3.382035    0.879433    3.802024
     18          6           0       -4.260172    0.000310    6.260077
     19          1           0       -2.301279    0.889417    6.063059
     20          1           0       -2.294922   -0.875633    6.068507
     21          6           0       -4.256232    0.007986    7.789653
     22          1           0       -4.794941   -0.886396    5.898461
     23          1           0       -4.802856    0.878620    5.889863
     24          6           0       -5.680003    0.002782    8.349950
     25          1           0       -3.722490    0.895453    8.150919
     26          1           0       -3.712685   -0.869677    8.160135
     27          6           0       -5.674519    0.012323    9.879880
     28          1           0       -6.213070   -0.884521    7.985355
     29          1           0       -6.223979    0.879534    7.976089
     30          6           0       -7.071612   -0.007278   10.430335
     31          1           0       -5.128482    0.892261   10.241464
     32          1           0       -5.141577   -0.869376   10.255440
     33          6           0       -7.595135    0.967368   11.184400
     34          1           0       -7.132022    1.946655   11.254695
     35          1           0       -8.506205    0.801954   11.751283
     36          1           0       -7.679357   -0.880293   10.200458
 ---------------------------------------------------------------------
                    Distance matrix (angstroms):
                    1          2          3          4          5
     1  C    0.000000
     2  C    1.520370   0.000000
     3  H    1.094490   2.159157   0.000000
     4  H    1.094690   2.168577   1.771972   0.000000
     5  H    1.094680   2.168613   1.771988   1.774717   0.000000
     6  C    2.520038   1.528460   3.470738   2.782142   2.781779
     7  H    2.146244   1.096220   2.473274   2.502440   3.065199
     8  H    2.146276   1.096220   2.473047   3.065192   2.502823
     9  C    3.878402   2.525193   4.678463   4.199193   4.199682
    10  H    2.750735   2.159230   3.753727   3.113149   2.560191
    11  H    2.749776   2.159252   3.753244   2.559554   3.111018
    12  C    5.046135   3.885106   5.971344   5.201405   5.201170
    13  H    4.166137   2.753574   4.834847   4.382948   4.727755
    14  H    4.166491   2.752953   4.834693   4.727624   4.384843
    15  C    6.366856   5.051376   7.202859   6.582116   6.583171
    16  H    5.165913   4.173965   6.140580   5.386942   5.086823
    17  H    5.164005   4.173428   6.139390   5.085128   5.383311
    18  C    7.572162   6.372903   8.487015   7.689454   7.689539
    19  H    6.545810   5.169427   7.305301   6.700091   6.931707
    20  H    6.546768   5.169037   7.305548   6.931599   6.703692
    21  C    8.876613   7.577564   9.728179   9.042941   9.044530
    22  H    7.653038   6.553231   8.607254   7.817088   7.613197
    23  H    7.650482   6.552241   8.605547   7.610549   7.812756
    24  C   10.098718   8.882882  11.007988  10.196564  10.197063
    25  H    9.005346   7.656563   9.803941   9.128324   9.300814
    26  H    9.007118   7.656817   9.804898   9.300974   9.133551
    27  C   11.393522  10.103550  12.253675  11.532006  11.533922
    28  H   10.156304   9.010030  11.097769  10.290024  10.136332
    29  H   10.155269   9.010427  11.097515  10.134812  10.287684
    30  C   12.601572  11.375202  13.506520  12.689548  12.688545
    31  H   11.488475  10.156522  12.307642  11.594631  11.730433
    32  H   11.505028  10.173154  12.324616  11.744799  11.612713
    33  C   13.554065  12.329451  14.456342  13.574562  13.700465
    34  H   13.465636  12.223431  14.342202  13.441208  13.695841
    35  H   14.528981  13.329300  15.448789  14.541732  14.639290
    36  H   12.798312  11.622882  13.729421  12.914127  12.792592
                    6          7          8          9         10
     6  C    0.000000
     7  H    2.162596   0.000000
     8  H    2.162521   1.764935   0.000000
     9  C    1.529570   2.758590   2.759577   0.000000
    10  H    1.096850   3.067188   2.508049   2.160357   0.000000
    11  H    1.096850   2.508986   3.067147   2.160241   1.764858
    12  C    2.526103   4.179624   4.179717   1.529590   2.753671
    13  H    2.160106   2.531941   3.087943   1.096820   3.065894
    14  H    2.160225   3.085219   2.532343   1.096820   2.507378
    15  C    3.886174   5.174869   5.176481   2.526184   4.175316
    16  H    2.754752   4.711883   4.368044   2.160130   2.526678
    17  H    2.753093   4.369184   4.711486   2.160203   3.079698
    18  C    5.052132   6.559116   6.559576   3.886138   5.169685
    19  H    4.174516   5.057787   5.359405   2.754511   4.707818
    20  H    4.175222   5.355585   5.059042   2.753620   4.366045
    21  C    6.373983   7.662246   7.664398   5.052372   6.554687
    22  H    5.170871   6.910685   6.680894   4.174899   5.053066
    23  H    5.168570   6.681580   6.910178   4.174500   5.349089
    24  C    7.578689   9.019133   9.020039   6.374456   7.657682
    25  H    6.553295   7.583462   7.789339   5.170272   6.905647
    26  H    6.554775   7.785345   7.585896   5.169986   6.678816
    27  C    8.883393  10.168485  10.170937   7.578358   9.014328
    28  H    7.655238   9.275008   9.105535   6.551548   7.576200
    29  H    7.654491   9.106989   9.276268   6.552394   7.777212
    30  C   10.081558  11.483196  11.482430   8.859059  10.141236
    31  H    9.007611  10.102794  10.257762   7.651148   9.267507
    32  H    9.023315  10.272224  10.122030   7.667235   9.113400
    33  C   11.041984  12.360756  12.498466   9.821662  11.173228
    34  H   10.980073  12.161588  12.441212   9.740600  11.214158
    35  H   12.014732  13.390836  13.496483  10.824403  12.100016
    36  H   10.288916  11.828979  11.697277   9.133363  10.232518
                   11         12         13         14         15
    11  H    0.000000
    12  C    2.754352   0.000000
    13  H    2.506446   2.160234   0.000000
    14  H    3.065897   2.160139   1.765078   0.000000
    15  C    4.174491   1.529580   2.753212   2.754885   0.000000
    16  H    3.083567   1.096810   3.065801   2.505919   2.160233
    17  H    2.525611   1.096810   2.507518   3.065785   2.160074
    18  C    5.170010   2.526029   4.174668   4.175006   1.529580
    19  H    4.362754   2.160107   2.525848   3.083949   1.096810
    20  H    4.707714   2.160261   3.079663   2.526699   1.096810
    21  C    6.553289   3.886145   5.169004   5.171276   2.526189
    22  H    5.353860   2.754707   4.707605   4.363349   2.160092
    23  H    5.051043   2.752925   4.364965   4.707550   2.160208
    24  C    7.657544   5.052586   6.554115   6.554963   3.886662
    25  H    6.673826   4.174322   5.051523   5.354402   2.754406
    26  H    6.905725   4.175306   5.349574   5.053554   2.753678
    27  C    9.012644   6.373959   7.656068   7.658573   5.052175
    28  H    7.779832   5.167763   6.903107   6.673556   4.172671
    29  H    7.575310   5.167456   6.675634   6.904711   4.173777
    30  C   10.143045   7.555459   8.988957   8.987569   6.349024
    31  H    9.096881   6.548902   7.570854   7.775461   5.163962
    32  H    9.281094   6.563171   7.789881   7.589689   5.179477
    33  C   11.019920   8.528498   9.852567  10.024405   7.324559
    34  H   10.904125   8.508380   9.654388  10.003842   7.285504
    35  H   11.982955   9.497823  10.891911  11.021270   8.330518
    36  H   10.383642   7.781061   9.386205   9.219466   6.669807
                   16         17         18         19         20
    16  H    0.000000
    17  H    1.765051   0.000000
    18  C    2.753366   2.754271   0.000000
    19  H    3.065784   2.506075   2.160229   0.000000
    20  H    2.507341   3.065781   2.160135   1.765070   0.000000
    21  C    4.175114   4.174306   1.529600   2.753160   2.754971
    22  H    2.526388   3.083748   1.096810   3.065771   2.505818
    23  H    3.079243   2.525432   1.096810   2.507588   3.065787
    24  C    5.169905   5.170378   2.526558   4.175137   4.175568
    25  H    4.707482   4.362231   2.160015   2.525676   3.084013
    26  H    4.366000   4.707638   2.160287   3.079644   2.526855
    27  C    6.554472   6.553449   3.886321   5.168768   5.170755
    28  H    5.049524   5.350379   2.751966   4.705761   4.361911
    29  H    5.347714   5.049700   2.752139   4.364327   4.707119
    30  C    7.634432   7.637653   5.029443   6.529413   6.526588
    31  H    6.901300   6.672079   4.171449   5.045013   5.344912
    32  H    6.685317   6.913819   4.182840   5.360662   5.062992
    33  C    8.697460   8.500437   6.025457   7.366079   7.593502
    34  H    8.808194   8.410926   6.081281   7.169861   7.632784
    35  H    9.605234   9.458004   6.987472   8.418114   8.584188
    36  H    7.705852   7.905921   5.290831   7.012394   6.787134
                   21         22         23         24         25
    21  C    0.000000
    22  H    2.160262   0.000000
    23  H    2.160093   1.765055   0.000000
    24  C    1.530060   2.753865   2.754724   0.000000
    25  H    1.096810   3.065731   2.505963   2.160632   0.000000
    26  H    1.096810   2.507335   3.065803   2.160452   1.765182
    27  C    2.525986   4.175291   4.174985   1.529970   2.753114
    28  H    2.159649   2.523137   3.080334   1.097450   3.065731
    29  H    2.160181   3.078506   2.524268   1.097440   2.507641
    30  C    3.860025   5.147228   5.152471   2.502934   4.150575
    31  H    2.748480   4.704950   4.363789   2.161753   2.519365
    32  H    2.762916   4.370779   4.714709   2.163667   3.091510
    33  C    4.857262   6.262482   5.986387   3.554190   4.919812
    34  H    4.902563   6.494411   5.945346   3.784778   4.728990
    35  H    5.864057   7.132989   6.933752   4.493903   5.987928
    36  H    4.280048   5.179486   5.472593   2.863847   4.796945
                   26         27         28         29         30
    26  H    0.000000
    27  C    2.753949   0.000000
    28  H    2.506530   2.164161   0.000000
    29  H    3.065976   2.162957   1.764112   0.000000
    30  C    4.144867   1.501750   2.735795   2.743764   0.000000
    31  H    3.072595   1.096900   3.069742   2.516387   2.149557
    32  H    2.536145   1.096570   2.510302   3.070134   2.121046
    33  C    5.253030   2.510508   3.946326   3.490136   1.338890
    34  H    5.403692   2.784972   4.421381   3.565466   2.121573
    35  H    6.218402   3.484840   4.720686   4.412104   2.111355
    36  H    4.460663   2.217862   2.656445   3.187936   1.088280
                   31         32         33         34         35
    31  H    0.000000
    32  H    1.761741   0.000000
    33  C    2.641807   3.202584   0.000000
    34  H    2.480434   3.590322   1.085550   0.000000
    35  H    3.700908   4.043713   1.085710   1.856157   0.000000
    36  H    3.106541   2.538400   2.095015   3.066371   2.432836
                   36
    36  H    0.000000
 Stoichiometry    C12H24
 Framework group  C1[X(C12H24)]
 Deg. of freedom   102
 Full point group                 C1      NOp   1
 Largest Abelian subgroup         C1      NOp   1
 Largest concise Abelian subgroup C1      NOp   1
                         Standard orientation:                         
 ---------------------------------------------------------------------
 Center     Atomic      Atomic             Coordinates (Angstroms)
 Number     Number       Type             X           Y           Z
 ---------------------------------------------------------------------
      1          6           0       -6.772739   -0.425412    0.085712
      2          6           0       -5.523501    0.440621    0.115987
      3          1           0       -7.668611    0.198839    0.160762
      4          1           0       -6.780318   -1.132385    0.921462
      5          1           0       -6.832738   -0.995045   -0.847156
      6          6           0       -4.253865   -0.404028    0.012150
      7          1           0       -5.510341    1.020234    1.046349
      8          1           0       -5.562779    1.157439   -0.712463
      9          6           0       -2.999495    0.470664    0.044627
     10          1           0       -4.273569   -0.983997   -0.918617
     11          1           0       -4.222078   -1.122852    0.840016
     12          6           0       -1.728980   -0.374547   -0.060515
     13          1           0       -2.979551    1.049686    0.975943
     14          1           0       -3.031621    1.189953   -0.782781
     15          6           0       -0.474445    0.499815   -0.025187
     16          1           0       -1.748181   -0.952084   -0.992756
     17          1           0       -1.697710   -1.095158    0.765762
     18          6           0        0.795869   -0.345466   -0.132030
     19          1           0       -0.454767    1.076331    0.907677
     20          1           0       -0.506029    1.221309   -0.850681
     21          6           0        2.050655    0.528441   -0.093606
     22          1           0        0.776949   -0.920365   -1.065907
     23          1           0        0.826509   -1.068410    0.692230
     24          6           0        3.321293   -0.317004   -0.202169
     25          1           0        2.069894    1.102241    0.840939
     26          1           0        2.019763    1.252193   -0.917147
     27          6           0        4.575546    0.558224   -0.161754
     28          1           0        3.298939   -0.892162   -1.136562
     29          1           0        3.349626   -1.042962    0.620362
     30          6           0        5.822486   -0.269883   -0.282716
     31          1           0        4.587826    1.142849    0.766282
     32          1           0        4.554743    1.276504   -0.990069
     33          6           0        6.768848   -0.344196    0.661479
     34          1           0        6.591919   -0.001041    1.676052
     35          1           0        7.748336   -0.753965    0.434632
     36          1           0        5.953756   -0.830514   -1.206195
 ---------------------------------------------------------------------
 Rotational constants (GHZ):      6.3838251      0.1581442      0.1570132
 Standard basis: def2SVP (5D, 7F)
 There are   300 symmetry adapted cartesian basis functions of A   symmetry.
 There are   288 symmetry adapted basis functions of A   symmetry.
   288 basis functions,   468 primitive gaussians,   300 cartesian basis functions
    48 alpha electrons       48 beta electrons
       nuclear repulsion energy       654.7598993460 Hartrees.
 NAtoms=   36 NActive=   36 NUniq=   36 SFac= 1.00D+00 NAtFMM=   60 NAOKFM=F Big=F
 Integral buffers will be    131072 words long.
 Raffenetti 2 integral format.
 Two-electron integral symmetry is turned on.
 One-electron integrals computed using PRISM.
   1 Symmetry operations used in ECPInt.
 ECPInt:  NShTT=   10440 NPrTT=   35208 LenC2=    8762 LenP2D=   21886.
 LDataN:  DoStor=T MaxTD1= 4 Len=   56
 NBasis=   288 RedAO= T EigKep=  7.64D-04  NBF=   288
 NBsUse=   288 1.00D-06 EigRej= -1.00D+00 NBFU=   288
 ExpMin= 1.22D-01 ExpMax= 1.24D+03 ExpMxC= 1.86D+02 IAcc=3 IRadAn=         7 AccDes= 0.00D+00
 Harris functional with IExCor= 1009 and IRadAn=       7 diagonalized for initial guess.
 HarFok:  IExCor= 1009 AccDes= 0.00D+00 IRadAn=         7 IDoV= 1 UseB2=F ITyADJ=14
 ICtDFT=  3500011 ScaDFX=  1.000000  1.000000  1.000000  1.000000
 FoFCou: FMM=F IPFlag=           0 FMFlag=      100000 FMFlg1=           0
         NFxFlg=           0 DoJE=T BraDBF=F KetDBF=T FulRan=T
         wScrn=  0.000000 ICntrl=     500 IOpCl=  0 I1Cent=   200000004 NGrid=           0
         NMat0=    1 NMatS0=      1 NMatT0=    0 NMatD0=    1 NMtDS0=    0 NMtDT0=    0
 Petite list used in FoFCou.
 Keep R1 ints in memory in canonical form, NReq=879895090.
 Requested convergence on RMS density matrix=1.00D-08 within 128 cycles.
 Requested convergence on MAX density matrix=1.00D-06.
 Requested convergence on             energy=1.00D-06.
 No special actions if energy rises.
 Integral accuracy reduced to 1.0D-05 until final iterations.
 Initial convergence to 1.0D-05 achieved.  Increase integral accuracy.
 SCF Done:  E(RM06) =  -470.970323075     A.U. after   12 cycles
            NFock= 12  Conv=0.71D-08     -V/T= 2.0127

 **********************************************************************

            Population analysis using the SCF density.

 **********************************************************************

 Orbital symmetries:
       Occupied  (A) (A) (A) (A) (A) (A) (A) (A) (A) (A) (A) (A)
                 (A) (A) (A) (A) (A) (A) (A) (A) (A) (A) (A) (A)
                 (A) (A) (A) (A) (A) (A) (A) (A) (A) (A) (A) (A)
                 (A) (A) (A) (A) (A) (A) (A) (A) (A) (A) (A) (A)
       Virtual   (A) (A) (A) (A) (A) (A) (A) (A) (A) (A) (A) (A)
                 (A) (A) (A) (A) (A) (A) (A) (A) (A) (A) (A) (A)
                 (A) (A) (A) (A) (A) (A) (A) (A) (A) (A) (A) (A)
                 (A) (A) (A) (A) (A) (A) (A) (A) (A) (A) (A) (A)
                 (A) (A) (A) (A) (A) (A) (A) (A) (A) (A) (A) (A)
                 (A) (A) (A) (A) (A) (A) (A) (A) (A) (A) (A) (A)
                 (A) (A) (A) (A) (A) (A) (A) (A) (A) (A) (A) (A)
                 (A) (A) (A) (A) (A) (A) (A) (A) (A) (A) (A) (A)
                 (A) (A) (A) (A) (A) (A) (A) (A) (A) (A) (A) (A)
                 (A) (A) (A) (A) (A) (A) (A) (A) (A) (A) (A) (A)
                 (A) (A) (A) (A) (A) (A) (A) (A) (A) (A) (A) (A)
                 (A) (A) (A) (A) (A) (A) (A) (A) (A) (A) (A) (A)
                 (A) (A) (A) (A) (A) (A) (A) (A) (A) (A) (A) (A)
                 (A) (A) (A) (A) (A) (A) (A) (A) (A) (A) (A) (A)
                 (A) (A) (A) (A) (A) (A) (A) (A) (A) (A) (A) (A)
                 (A) (A) (A) (A) (A) (A) (A) (A) (A) (A) (A) (A)
                 (A) (A) (A) (A) (A) (A) (A) (A) (A) (A) (A) (A)
                 (A) (A) (A) (A) (A) (A) (A) (A) (A) (A) (A) (A)
                 (A) (A) (A) (A) (A) (A) (A) (A) (A) (A) (A) (A)
                 (A) (A) (A) (A) (A) (A) (A) (A) (A) (A) (A) (A)
 The electronic state is 1-A.
 Alpha  occ. eigenvalues --  -10.24848 -10.24471 -10.24104 -10.23884 -10.23768
 Alpha  occ. eigenvalues --  -10.23737 -10.23704 -10.23662 -10.23654 -10.23636
 Alpha  occ. eigenvalues --  -10.23629 -10.23198  -0.82186  -0.81021  -0.79014
 Alpha  occ. eigenvalues --   -0.76298  -0.73016  -0.69200  -0.64898  -0.60612
 Alpha  occ. eigenvalues --   -0.58405  -0.57675  -0.57492  -0.55305  -0.49725
 Alpha  occ. eigenvalues --   -0.48572  -0.47065  -0.45453  -0.44589  -0.43734
 Alpha  occ. eigenvalues --   -0.43250  -0.42201  -0.40633  -0.40451  -0.38962
 Alpha  occ. eigenvalues --   -0.37825  -0.36841  -0.36135  -0.35157  -0.34611
 Alpha  occ. eigenvalues --   -0.34310  -0.33899  -0.33586  -0.33347  -0.33044
 Alpha  occ. eigenvalues --   -0.32915  -0.30509  -0.25972
 Alpha virt. eigenvalues --    0.01689   0.06309   0.07016   0.07936   0.08143
 Alpha virt. eigenvalues --    0.08717   0.09171   0.09635   0.10237   0.11017
 Alpha virt. eigenvalues --    0.11333   0.12752   0.13548   0.13716   0.14947
 Alpha virt. eigenvalues --    0.15559   0.15928   0.16210   0.16246   0.16936
 Alpha virt. eigenvalues --    0.17160   0.18248   0.18509   0.19584   0.19794
 Alpha virt. eigenvalues --    0.20521   0.20816   0.22692   0.23218   0.23752
 Alpha virt. eigenvalues --    0.25818   0.26588   0.28250   0.32406   0.32662
 Alpha virt. eigenvalues --    0.35494   0.38384   0.40700   0.41504   0.41774
 Alpha virt. eigenvalues --    0.42562   0.42889   0.43476   0.43826   0.44629
 Alpha virt. eigenvalues --    0.44752   0.47739   0.48241   0.49087   0.50450
 Alpha virt. eigenvalues --    0.52242   0.52542   0.53867   0.54904   0.58703
 Alpha virt. eigenvalues --    0.59233   0.61174   0.61510   0.61963   0.62157
 Alpha virt. eigenvalues --    0.62525   0.62564   0.62831   0.63125   0.63410
 Alpha virt. eigenvalues --    0.64034   0.64527   0.64747   0.65039   0.65653
 Alpha virt. eigenvalues --    0.66086   0.66247   0.66436   0.66679   0.67168
 Alpha virt. eigenvalues --    0.67227   0.67535   0.68543   0.68733   0.69076
 Alpha virt. eigenvalues --    0.69580   0.69938   0.70542   0.70948   0.71061
 Alpha virt. eigenvalues --    0.71652   0.71777   0.72027   0.72979   0.73387
 Alpha virt. eigenvalues --    0.77189   0.82114   0.84404   0.87393   0.88940
 Alpha virt. eigenvalues --    0.94237   0.98091   0.98781   0.99080   1.00392
 Alpha virt. eigenvalues --    1.01948   1.02146   1.02622   1.03027   1.04885
 Alpha virt. eigenvalues --    1.05875   1.08246   1.09553   1.17671   1.19589
 Alpha virt. eigenvalues --    1.20197   1.23232   1.26917   1.29134   1.31594
 Alpha virt. eigenvalues --    1.32346   1.32981   1.33981   1.34818   1.35922
 Alpha virt. eigenvalues --    1.36401   1.37393   1.37869   1.38073   1.42364
 Alpha virt. eigenvalues --    1.50536   1.52655   1.57425   1.59495   1.62884
 Alpha virt. eigenvalues --    1.63874   1.65495   1.66332   1.66626   1.70508
 Alpha virt. eigenvalues --    1.71551   1.72819   1.73755   1.74048   1.74375
 Alpha virt. eigenvalues --    1.74739   1.76130   1.76573   1.76760   1.78092
 Alpha virt. eigenvalues --    1.78401   1.79030   1.79477   1.80057   1.80295
 Alpha virt. eigenvalues --    1.80405   1.80548   1.81171   1.81866   1.82408
 Alpha virt. eigenvalues --    1.82653   1.84025   1.84539   1.84754   1.85730
 Alpha virt. eigenvalues --    1.86964   1.88106   1.89548   1.90740   1.91435
 Alpha virt. eigenvalues --    1.91566   1.92309   1.93054   1.93723   1.94715
 Alpha virt. eigenvalues --    1.96571   1.98761   1.99929   2.01078   2.03602
 Alpha virt. eigenvalues --    2.05699   2.06565   2.09633   2.10639   2.11536
 Alpha virt. eigenvalues --    2.14366   2.15908   2.17728   2.21872   2.23380
 Alpha virt. eigenvalues --    2.27455   2.29629   2.31356   2.36021   2.37372
 Alpha virt. eigenvalues --    2.39199   2.40045   2.41446   2.41546   2.42005
 Alpha virt. eigenvalues --    2.42768   2.43430   2.44458   2.45354   2.46822
 Alpha virt. eigenvalues --    2.49546   2.50293   2.51264   2.52477   2.55766
 Alpha virt. eigenvalues --    2.56418   2.57512   2.57927   2.58938   2.59790
 Alpha virt. eigenvalues --    2.60434   2.61566   2.62709   2.65368   2.69652
 Alpha virt. eigenvalues --    2.72561   2.75193   2.78221   2.79401   2.80910
 Alpha virt. eigenvalues --    2.82404   2.84020   2.85324   2.85947   2.88856
 Alpha virt. eigenvalues --    2.90012   2.91809   2.92503   2.94689   2.95637
 Alpha virt. eigenvalues --    2.96841   2.97770   2.99664   3.00205   3.01331
 Alpha virt. eigenvalues --    3.04015   3.04653   3.05909   3.07594   3.20003
          Condensed to atoms (all electrons):
               1          2          3          4          5          6
     1  C    4.571404   0.421774   0.377956   0.394067   0.394027  -0.058833
     2  C    0.421774   4.674058  -0.014017  -0.023345  -0.023340   0.398576
     3  H    0.377956  -0.014017   0.656498  -0.024838  -0.024842   0.008284
     4  H    0.394067  -0.023345  -0.024838   0.653214  -0.027913  -0.008667
     5  H    0.394027  -0.023340  -0.024842  -0.027913   0.653303  -0.008667
     6  C   -0.058833   0.398576   0.008284  -0.008667  -0.008667   4.752100
     7  H   -0.023838   0.375241  -0.006693  -0.010178   0.008805  -0.022824
     8  H   -0.023806   0.375172  -0.006705   0.008804  -0.010167  -0.022763
     9  C    0.009389  -0.046178  -0.000555   0.000467   0.000469   0.364252
    10  H   -0.004396  -0.027303  -0.000047  -0.001941   0.007553   0.374673
    11  H   -0.004379  -0.027364  -0.000045   0.007555  -0.001947   0.374803
    12  C   -0.000510   0.008367   0.000016  -0.000008  -0.000008  -0.043098
    13  H    0.000294  -0.006641   0.000008  -0.000053   0.000024  -0.022346
    14  H    0.000299  -0.006630   0.000008   0.000024  -0.000053  -0.022320
    15  C    0.000009  -0.000440   0.000000   0.000000   0.000000   0.008161
    16  H    0.000007   0.000318   0.000000   0.000004  -0.000010  -0.007046
    17  H    0.000007   0.000325   0.000000  -0.000010   0.000004  -0.007025
    18  C    0.000000   0.000008   0.000000   0.000000   0.000000  -0.000458
    19  H    0.000000   0.000003   0.000000   0.000000   0.000000   0.000376
    20  H    0.000000   0.000003   0.000000   0.000000   0.000000   0.000385
    21  C    0.000000   0.000000   0.000000   0.000000   0.000000   0.000008
    22  H    0.000000   0.000000   0.000000   0.000000   0.000000   0.000003
    23  H    0.000000   0.000000   0.000000   0.000000   0.000000   0.000004
    24  C    0.000000   0.000000   0.000000   0.000000   0.000000   0.000000
    25  H    0.000000   0.000000   0.000000   0.000000   0.000000   0.000000
    26  H    0.000000   0.000000   0.000000   0.000000   0.000000   0.000000
    27  C    0.000000   0.000000   0.000000   0.000000   0.000000   0.000000
    28  H    0.000000   0.000000   0.000000   0.000000   0.000000   0.000000
    29  H    0.000000   0.000000   0.000000   0.000000   0.000000   0.000000
    30  C    0.000000   0.000000   0.000000   0.000000   0.000000   0.000000
    31  H    0.000000   0.000000   0.000000   0.000000   0.000000   0.000000
    32  H    0.000000   0.000000   0.000000   0.000000   0.000000   0.000000
    33  C    0.000000   0.000000   0.000000   0.000000   0.000000   0.000000
    34  H    0.000000   0.000000   0.000000   0.000000   0.000000   0.000000
    35  H    0.000000   0.000000   0.000000   0.000000   0.000000   0.000000
    36  H    0.000000   0.000000   0.000000   0.000000   0.000000   0.000000
               7          8          9         10         11         12
     1  C   -0.023838  -0.023806   0.009389  -0.004396  -0.004379  -0.000510
     2  C    0.375241   0.375172  -0.046178  -0.027303  -0.027364   0.008367
     3  H   -0.006693  -0.006705  -0.000555  -0.000047  -0.000045   0.000016
     4  H   -0.010178   0.008804   0.000467  -0.001941   0.007555  -0.000008
     5  H    0.008805  -0.010167   0.000469   0.007553  -0.001947  -0.000008
     6  C   -0.022824  -0.022763   0.364252   0.374673   0.374803  -0.043098
     7  H    0.691051  -0.034884  -0.007350   0.009505  -0.011838   0.000362
     8  H   -0.034884   0.691109  -0.007366  -0.011878   0.009504   0.000357
     9  C   -0.007350  -0.007366   4.749975  -0.020955  -0.020971   0.364071
    10  H    0.009505  -0.011878  -0.020955   0.696341  -0.037163  -0.007311
    11  H   -0.011838   0.009504  -0.020971  -0.037163   0.696174  -0.007329
    12  C    0.000362   0.000357   0.364071  -0.007311  -0.007329   4.747832
    13  H    0.007903  -0.002031   0.372263   0.009445  -0.011954  -0.021274
    14  H   -0.002039   0.007901   0.372148  -0.011930   0.009444  -0.021188
    15  C    0.000004   0.000004  -0.044180   0.000436   0.000430   0.366614
    16  H    0.000015  -0.000040  -0.021635   0.007736  -0.002009   0.371729
    17  H   -0.000040   0.000015  -0.021711  -0.002020   0.007743   0.371920
    18  C    0.000000   0.000000   0.008381   0.000001   0.000001  -0.045313
    19  H   -0.000013   0.000005  -0.007114   0.000014  -0.000040  -0.021321
    20  H    0.000005  -0.000012  -0.007109  -0.000040   0.000014  -0.021268
    21  C    0.000000   0.000000  -0.000460   0.000000   0.000000   0.008390
    22  H    0.000000   0.000000   0.000390  -0.000012   0.000005  -0.007190
    23  H    0.000000   0.000000   0.000390   0.000005  -0.000012  -0.007084
    24  C    0.000000   0.000000   0.000008   0.000000   0.000000  -0.000447
    25  H    0.000000   0.000000   0.000003   0.000000   0.000000   0.000378
    26  H    0.000000   0.000000   0.000002   0.000000   0.000000   0.000392
    27  C    0.000000   0.000000   0.000000   0.000000   0.000000   0.000007
    28  H    0.000000   0.000000   0.000000   0.000000   0.000000   0.000001
    29  H    0.000000   0.000000   0.000000   0.000000   0.000000  -0.000003
    30  C    0.000000   0.000000   0.000000   0.000000   0.000000   0.000000
    31  H    0.000000   0.000000   0.000000   0.000000   0.000000   0.000000
    32  H    0.000000   0.000000   0.000000   0.000000   0.000000   0.000000
    33  C    0.000000   0.000000   0.000000   0.000000   0.000000   0.000000
    34  H    0.000000   0.000000   0.000000   0.000000   0.000000   0.000000
    35  H    0.000000   0.000000   0.000000   0.000000   0.000000   0.000000
    36  H    0.000000   0.000000   0.000000   0.000000   0.000000   0.000000
              13         14         15         16         17         18
     1  C    0.000294   0.000299   0.000009   0.000007   0.000007   0.000000
     2  C   -0.006641  -0.006630  -0.000440   0.000318   0.000325   0.000008
     3  H    0.000008   0.000008   0.000000   0.000000   0.000000   0.000000
     4  H   -0.000053   0.000024   0.000000   0.000004  -0.000010   0.000000
     5  H    0.000024  -0.000053   0.000000  -0.000010   0.000004   0.000000
     6  C   -0.022346  -0.022320   0.008161  -0.007046  -0.007025  -0.000458
     7  H    0.007903  -0.002039   0.000004   0.000015  -0.000040   0.000000
     8  H   -0.002031   0.007901   0.000004  -0.000040   0.000015   0.000000
     9  C    0.372263   0.372148  -0.044180  -0.021635  -0.021711   0.008381
    10  H    0.009445  -0.011930   0.000436   0.007736  -0.002020   0.000001
    11  H   -0.011954   0.009444   0.000430  -0.002009   0.007743   0.000001
    12  C   -0.021274  -0.021188   0.366614   0.371729   0.371920  -0.045313
    13  H    0.696058  -0.036333  -0.007210   0.009382  -0.011860   0.000400
    14  H   -0.036333   0.696195  -0.007235  -0.011929   0.009379   0.000393
    15  C   -0.007210  -0.007235   4.744747  -0.021129  -0.021154   0.366783
    16  H    0.009382  -0.011929  -0.021129   0.696162  -0.036202  -0.007215
    17  H   -0.011860   0.009379  -0.021154  -0.036202   0.695802  -0.007219
    18  C    0.000400   0.000393   0.366783  -0.007215  -0.007219   4.744888
    19  H    0.007786  -0.001994   0.371799   0.009373  -0.011921  -0.021423
    20  H   -0.002007   0.007782   0.371667  -0.011893   0.009374  -0.021451
    21  C    0.000003   0.000003  -0.044199   0.000396   0.000393   0.365755
    22  H    0.000014  -0.000040  -0.020865   0.007790  -0.001992   0.372006
    23  H   -0.000040   0.000014  -0.021062  -0.002003   0.007782   0.371993
    24  C    0.000000   0.000000   0.008125   0.000004   0.000002  -0.043068
    25  H   -0.000012   0.000005  -0.006977   0.000014  -0.000040  -0.021022
    26  H    0.000005  -0.000012  -0.007248  -0.000040   0.000014  -0.021103
    27  C    0.000000   0.000000  -0.000436   0.000000   0.000000   0.008205
    28  H    0.000000   0.000000   0.000463  -0.000012   0.000005  -0.007375
    29  H    0.000000   0.000000   0.000404   0.000005  -0.000012  -0.007286
    30  C    0.000000   0.000000   0.000008   0.000000   0.000000  -0.000477
    31  H    0.000000   0.000000   0.000000   0.000000   0.000000   0.000383
    32  H    0.000000   0.000000  -0.000011   0.000000   0.000000   0.000461
    33  C    0.000000   0.000000   0.000000   0.000000   0.000000   0.000006
    34  H    0.000000   0.000000   0.000000   0.000000   0.000000   0.000002
    35  H    0.000000   0.000000   0.000000   0.000000   0.000000   0.000000
    36  H    0.000000   0.000000   0.000000   0.000000   0.000000   0.000011
              19         20         21         22         23         24
     1  C    0.000000   0.000000   0.000000   0.000000   0.000000   0.000000
     2  C    0.000003   0.000003   0.000000   0.000000   0.000000   0.000000
     3  H    0.000000   0.000000   0.000000   0.000000   0.000000   0.000000
     4  H    0.000000   0.000000   0.000000   0.000000   0.000000   0.000000
     5  H    0.000000   0.000000   0.000000   0.000000   0.000000   0.000000
     6  C    0.000376   0.000385   0.000008   0.000003   0.000004   0.000000
     7  H   -0.000013   0.000005   0.000000   0.000000   0.000000   0.000000
     8  H    0.000005  -0.000012   0.000000   0.000000   0.000000   0.000000
     9  C   -0.007114  -0.007109  -0.000460   0.000390   0.000390   0.000008
    10  H    0.000014  -0.000040   0.000000  -0.000012   0.000005   0.000000
    11  H   -0.000040   0.000014   0.000000   0.000005  -0.000012   0.000000
    12  C   -0.021321  -0.021268   0.008390  -0.007190  -0.007084  -0.000447
    13  H    0.007786  -0.002007   0.000003   0.000014  -0.000040   0.000000
    14  H   -0.001994   0.007782   0.000003  -0.000040   0.000014   0.000000
    15  C    0.371799   0.371667  -0.044199  -0.020865  -0.021062   0.008125
    16  H    0.009373  -0.011893   0.000396   0.007790  -0.002003   0.000004
    17  H   -0.011921   0.009374   0.000393  -0.001992   0.007782   0.000002
    18  C   -0.021423  -0.021451   0.365755   0.372006   0.371993  -0.043068
    19  H    0.695862  -0.036176  -0.007230   0.009361  -0.011849   0.000408
    20  H   -0.036176   0.696247  -0.007180  -0.011921   0.009356   0.000372
    21  C   -0.007230  -0.007180   4.751964  -0.021851  -0.021655   0.361734
    22  H    0.009361  -0.011921  -0.021851   0.695253  -0.036067  -0.007057
    23  H   -0.011849   0.009356  -0.021655  -0.036067   0.694640  -0.006911
    24  C    0.000408   0.000372   0.361734  -0.007057  -0.006911   4.783825
    25  H    0.007767  -0.002001   0.372884   0.009331  -0.011924  -0.022829
    26  H   -0.001987   0.007753   0.370726  -0.011818   0.009363  -0.021922
    27  C    0.000002   0.000004  -0.043360   0.000299   0.000342   0.378481
    28  H    0.000012  -0.000041  -0.017387   0.007693  -0.001978   0.371065
    29  H   -0.000036   0.000011  -0.023109  -0.001984   0.007418   0.375530
    30  C    0.000000   0.000000   0.008658   0.000011  -0.000001  -0.063751
    31  H   -0.000012   0.000006  -0.005848   0.000016  -0.000025  -0.024056
    32  H    0.000005  -0.000011  -0.011076  -0.000045   0.000007  -0.017401
    33  C    0.000000   0.000000  -0.000328   0.000001  -0.000005  -0.000169
    34  H    0.000000   0.000000  -0.000125   0.000000   0.000001   0.000502
    35  H    0.000000   0.000000   0.000022   0.000000   0.000000  -0.000322
    36  H    0.000000   0.000000  -0.000094  -0.000008   0.000004  -0.002910
              25         26         27         28         29         30
     1  C    0.000000   0.000000   0.000000   0.000000   0.000000   0.000000
     2  C    0.000000   0.000000   0.000000   0.000000   0.000000   0.000000
     3  H    0.000000   0.000000   0.000000   0.000000   0.000000   0.000000
     4  H    0.000000   0.000000   0.000000   0.000000   0.000000   0.000000
     5  H    0.000000   0.000000   0.000000   0.000000   0.000000   0.000000
     6  C    0.000000   0.000000   0.000000   0.000000   0.000000   0.000000
     7  H    0.000000   0.000000   0.000000   0.000000   0.000000   0.000000
     8  H    0.000000   0.000000   0.000000   0.000000   0.000000   0.000000
     9  C    0.000003   0.000002   0.000000   0.000000   0.000000   0.000000
    10  H    0.000000   0.000000   0.000000   0.000000   0.000000   0.000000
    11  H    0.000000   0.000000   0.000000   0.000000   0.000000   0.000000
    12  C    0.000378   0.000392   0.000007   0.000001  -0.000003   0.000000
    13  H   -0.000012   0.000005   0.000000   0.000000   0.000000   0.000000
    14  H    0.000005  -0.000012   0.000000   0.000000   0.000000   0.000000
    15  C   -0.006977  -0.007248  -0.000436   0.000463   0.000404   0.000008
    16  H    0.000014  -0.000040   0.000000  -0.000012   0.000005   0.000000
    17  H   -0.000040   0.000014   0.000000   0.000005  -0.000012   0.000000
    18  C   -0.021022  -0.021103   0.008205  -0.007375  -0.007286  -0.000477
    19  H    0.007767  -0.001987   0.000002   0.000012  -0.000036   0.000000
    20  H   -0.002001   0.007753   0.000004  -0.000041   0.000011   0.000000
    21  C    0.372884   0.370726  -0.043360  -0.017387  -0.023109   0.008658
    22  H    0.009331  -0.011818   0.000299   0.007693  -0.001984   0.000011
    23  H   -0.011924   0.009363   0.000342  -0.001978   0.007418  -0.000001
    24  C   -0.022829  -0.021922   0.378481   0.371065   0.375530  -0.063751
    25  H    0.694304  -0.036225  -0.006937   0.009279  -0.011719   0.000238
    26  H   -0.036225   0.696509  -0.006271  -0.012007   0.009352   0.000580
    27  C   -0.006937  -0.006271   4.718309  -0.025582  -0.032218   0.369601
    28  H    0.009279  -0.012007  -0.025582   0.691791  -0.036788  -0.006509
    29  H   -0.011719   0.009352  -0.032218  -0.036788   0.688043   0.005390
    30  C    0.000238   0.000580   0.369601  -0.006509   0.005390   4.751336
    31  H    0.007493  -0.002062   0.377240   0.009263  -0.011565  -0.024988
    32  H   -0.001815   0.008303   0.360554  -0.011527   0.009845  -0.010556
    33  C    0.000051  -0.000024  -0.051696   0.000016   0.001480   0.696356
    34  H   -0.000022   0.000007  -0.023432   0.000020   0.000369  -0.021644
    35  H    0.000001  -0.000001   0.010613   0.000032  -0.000138  -0.011924
    36  H    0.000012  -0.000022  -0.055716   0.005812  -0.001419   0.394928
              31         32         33         34         35         36
     1  C    0.000000   0.000000   0.000000   0.000000   0.000000   0.000000
     2  C    0.000000   0.000000   0.000000   0.000000   0.000000   0.000000
     3  H    0.000000   0.000000   0.000000   0.000000   0.000000   0.000000
     4  H    0.000000   0.000000   0.000000   0.000000   0.000000   0.000000
     5  H    0.000000   0.000000   0.000000   0.000000   0.000000   0.000000
     6  C    0.000000   0.000000   0.000000   0.000000   0.000000   0.000000
     7  H    0.000000   0.000000   0.000000   0.000000   0.000000   0.000000
     8  H    0.000000   0.000000   0.000000   0.000000   0.000000   0.000000
     9  C    0.000000   0.000000   0.000000   0.000000   0.000000   0.000000
    10  H    0.000000   0.000000   0.000000   0.000000   0.000000   0.000000
    11  H    0.000000   0.000000   0.000000   0.000000   0.000000   0.000000
    12  C    0.000000   0.000000   0.000000   0.000000   0.000000   0.000000
    13  H    0.000000   0.000000   0.000000   0.000000   0.000000   0.000000
    14  H    0.000000   0.000000   0.000000   0.000000   0.000000   0.000000
    15  C    0.000000  -0.000011   0.000000   0.000000   0.000000   0.000000
    16  H    0.000000   0.000000   0.000000   0.000000   0.000000   0.000000
    17  H    0.000000   0.000000   0.000000   0.000000   0.000000   0.000000
    18  C    0.000383   0.000461   0.000006   0.000002   0.000000   0.000011
    19  H   -0.000012   0.000005   0.000000   0.000000   0.000000   0.000000
    20  H    0.000006  -0.000011   0.000000   0.000000   0.000000   0.000000
    21  C   -0.005848  -0.011076  -0.000328  -0.000125   0.000022  -0.000094
    22  H    0.000016  -0.000045   0.000001   0.000000   0.000000  -0.000008
    23  H   -0.000025   0.000007  -0.000005   0.000001   0.000000   0.000004
    24  C   -0.024056  -0.017401  -0.000169   0.000502  -0.000322  -0.002910
    25  H    0.007493  -0.001815   0.000051  -0.000022   0.000001   0.000012
    26  H   -0.002062   0.008303  -0.000024   0.000007  -0.000001  -0.000022
    27  C    0.377240   0.360554  -0.051696  -0.023432   0.010613  -0.055716
    28  H    0.009263  -0.011527   0.000016   0.000020   0.000032   0.005812
    29  H   -0.011565   0.009845   0.001480   0.000369  -0.000138  -0.001419
    30  C   -0.024988  -0.010556   0.696356  -0.021644  -0.011924   0.394928
    31  H    0.684402  -0.034798  -0.011839   0.007952  -0.000011   0.008426
    32  H   -0.034798   0.676026   0.001950   0.000242  -0.000532  -0.007391
    33  C   -0.011839   0.001950   4.717136   0.390251   0.377274  -0.036276
    34  H    0.007952   0.000242   0.390251   0.651171  -0.050797   0.009600
    35  H   -0.000011  -0.000532   0.377274  -0.050797   0.651221  -0.016803
    36  H    0.008426  -0.007391  -0.036276   0.009600  -0.016803   0.673950
 Mulliken charges:
               1
     1  C   -0.053472
     2  C   -0.078587
     3  H    0.034971
     4  H    0.032819
     5  H    0.032761
     6  C   -0.057580
     7  H    0.026805
     8  H    0.026780
     9  C   -0.036626
    10  H    0.019289
    11  H    0.019377
    12  C   -0.037085
    13  H    0.018175
    14  H    0.018109
    15  C   -0.037513
    16  H    0.018227
    17  H    0.018437
    18  C   -0.036268
    19  H    0.018343
    20  H    0.018134
    21  C   -0.037035
    22  H    0.018678
    23  H    0.019298
    24  C   -0.069214
    25  H    0.019761
    26  H    0.017732
    27  C    0.021991
    28  H    0.023754
    29  H    0.028431
    30  C   -0.087260
    31  H    0.020022
    32  H    0.037769
    33  C   -0.084185
    34  H    0.035903
    35  H    0.041364
    36  H    0.027894
 Sum of Mulliken charges =   0.00000
 Mulliken charges with hydrogens summed into heavy atoms:
               1
     1  C    0.047079
     2  C   -0.025002
     6  C   -0.018913
     9  C   -0.000342
    12  C   -0.000421
    15  C   -0.001036
    18  C    0.001708
    21  C    0.000458
    24  C   -0.017029
    27  C    0.079782
    30  C   -0.059365
    33  C   -0.006917
 Electronic spatial extent (au):  <R**2>=           6921.1623
 Charge=              0.0000 electrons
 Dipole moment (field-independent basis, Debye):
    X=             -0.4406    Y=              0.1310    Z=             -0.1699  Tot=              0.4901
 Quadrupole moment (field-independent basis, Debye-Ang):
   XX=            -85.3766   YY=            -81.5725   ZZ=            -77.8788
   XY=             -0.4868   XZ=             -0.7063   YZ=              0.4657
 Traceless Quadrupole moment (field-independent basis, Debye-Ang):
   XX=             -3.7673   YY=              0.0368   ZZ=              3.7305
   XY=             -0.4868   XZ=             -0.7063   YZ=              0.4657
 Octapole moment (field-independent basis, Debye-Ang**2):
  XXX=            -21.3850  YYY=              1.3226  ZZZ=              0.3067  XYY=             -5.3271
  XXY=             -2.3211  XXZ=             -2.5234  XZZ=              2.2780  YZZ=              0.1560
  YYZ=             -1.1395  XYZ=              3.9561
 Hexadecapole moment (field-independent basis, Debye-Ang**3):
 XXXX=          -9466.7074 YYYY=           -276.9846 ZZZZ=           -189.9774 XXXY=           -110.3893
 XXXZ=             -2.8341 YYYX=              7.3219 YYYZ=             -0.5039 ZZZX=              2.9989
 ZZZY=              1.9458 XXYY=          -1622.9795 XXZZ=          -1525.2083 YYZZ=            -73.2786
 XXYZ=             22.4529 YYXZ=             -7.4583 ZZXY=              3.0247
 N-N= 6.547598993460D+02 E-N=-2.395846903194D+03  KE= 4.650660777965D+02
   1 Symmetry operations used in ECPInt.
 ECPInt:  NShTT=   10440 NPrTT=   35208 LenC2=    8762 LenP2D=   21886.
 LDataN:  DoStor=T MaxTD1= 5 Len=  102
 Calling FoFJK, ICntrl=      2127 FMM=F ISym2X=0 I1Cent= 0 IOpClX= 0 NMat=1 NMatS=1 NMatT=0.
 ***** Axes restored to original set *****
 -------------------------------------------------------------------
 Center     Atomic                   Forces (Hartrees/Bohr)
 Number     Number              X              Y              Z
 -------------------------------------------------------------------
      1        6           0.005902237    0.000006908    0.008759262
      2        6          -0.015546918   -0.000015674   -0.013128628
      3        1           0.003364641   -0.000000823   -0.004687160
      4        1          -0.002699564    0.003584506   -0.002779198
      5        1          -0.002700310   -0.003592241   -0.002780731
      6        6           0.021473891    0.000035981    0.014430091
      7        1           0.003036625    0.003845998    0.004288377
      8        1           0.003048578   -0.003840534    0.004287150
      9        6          -0.021510528   -0.000059454   -0.014630032
     10        1          -0.003900331   -0.004382983   -0.002728114
     11        1          -0.003905875    0.004369154   -0.002738006
     12        6           0.021563098    0.000099748    0.014611857
     13        1           0.003873301    0.004299452    0.002626957
     14        1           0.003901883   -0.004278851    0.002630294
     15        6          -0.021522747   -0.000117617   -0.014578687
     16        1          -0.003899848   -0.004318553   -0.002620293
     17        1          -0.003914044    0.004280231   -0.002645022
     18        6           0.021282186    0.000204824    0.014698581
     19        1           0.003871074    0.004318285    0.002632962
     20        1           0.003922148   -0.004275846    0.002649260
     21        6          -0.021268681   -0.000561717   -0.014275127
     22        1          -0.003862571   -0.004321721   -0.002624033
     23        1          -0.003902003    0.004240940   -0.002640094
     24        6           0.021381424   -0.001140246    0.009978472
     25        1           0.003833912    0.004332868    0.002657213
     26        1           0.003993797   -0.004303003    0.002705901
     27        6          -0.021725649    0.003657632   -0.015373422
     28        1          -0.003733547   -0.004073613   -0.002364167
     29        1          -0.003624786    0.003644502   -0.001360793
     30        6           0.009808166    0.013767372    0.009832520
     31        1           0.001677179    0.004222536    0.002830959
     32        1           0.003936366   -0.004973870    0.001307299
     33        6           0.000666623   -0.011802329   -0.007246127
     34        1           0.008629095    0.003707176    0.008002792
     35        1          -0.010647694    0.003706900   -0.003790490
     36        1          -0.000801128   -0.010265934    0.004060178
 -------------------------------------------------------------------
 Cartesian Forces:  Max     0.021725649 RMS     0.008400389
 -----------------------------------------------------------------------------------------------
                       Internal Coordinate Forces (Hartree/Bohr or radian)
  Cent   Atom   N1       Length/X         N2         Alpha/Y        N3         Beta/Z          J
 -----------------------------------------------------------------------------------------------
      1  C 
      2  C        1   0.001488(     1)
      3  H        1   0.004780(     2)      2   0.006685(    36)
      4  H        1   0.005152(     3)      2   0.002067(    37)      3  -0.001093(    70)     0
      5  H        1   0.005159(     4)      2   0.002064(    38)      3   0.001086(    71)     0
      6  C        2  -0.002992(     5)      1   0.010391(    39)      3  -0.000008(    72)     0
      7  H        2   0.006003(     6)      1   0.005086(    40)      3  -0.001129(    73)     0
      8  H        2   0.006005(     7)      1   0.005082(    41)      3   0.001147(    74)     0
      9  C        6  -0.002946(     8)      2   0.011597(    42)      1  -0.000036(    75)     0
     10  H        6   0.006351(     9)      2   0.001109(    43)      1  -0.002175(    76)     0
     11  H        6   0.006349(    10)      2   0.001106(    44)      1   0.002178(    77)     0
     12  C        9  -0.002906(    11)      6   0.011692(    45)      2  -0.000020(    78)     0
     13  H        9   0.006236(    12)      6   0.001220(    46)      2  -0.002100(    79)     0
     14  H        9   0.006240(    13)      6   0.001202(    47)      2   0.002125(    80)     0
     15  C       12  -0.002919(    14)      9   0.011692(    48)      6  -0.000045(    81)     0
     16  H       12   0.006260(    15)      9   0.001271(    49)      6  -0.002103(    82)     0
     17  H       12   0.006253(    16)      9   0.001261(    50)      6   0.002103(    83)     0
     18  C       15  -0.002907(    17)     12   0.011650(    51)      9  -0.000034(    84)     0
     19  H       15   0.006249(    18)     12   0.001241(    52)      9  -0.002104(    85)     0
     20  H       15   0.006257(    19)     12   0.001212(    53)      9   0.002136(    86)     0
     21  C       18  -0.003055(    20)     15   0.011546(    54)     12  -0.000022(    87)     0
     22  H       18   0.006242(    21)     15   0.001217(    55)     12  -0.002114(    88)     0
     23  H       18   0.006218(    22)     15   0.001257(    56)     12   0.002096(    89)     0
     24  C       21  -0.003029(    23)     18   0.011241(    57)     15  -0.000217(    90)     0
     25  H       21   0.006247(    24)     18   0.001315(    58)     15  -0.002056(    91)     0
     26  H       21   0.006336(    25)     18   0.001257(    59)     15   0.002200(    92)     0
     27  C       24  -0.000394(    26)     21   0.011817(    60)     18   0.001361(    93)     0
     28  H       24   0.005892(    27)     21   0.001451(    61)     18  -0.001867(    94)     0
     29  H       24   0.005172(    28)     21   0.002499(    62)     18   0.000525(    95)     0
     30  C       27  -0.003130(    29)     24   0.012913(    63)     21  -0.002424(    96)     0
     31  H       27   0.005155(    30)     24   0.002485(    64)     21   0.001564(    97)     0
     32  H       27   0.006360(    31)     24  -0.001910(    65)     21   0.001563(    98)     0
     33  C       30  -0.004374(    32)     27   0.004382(    66)     24  -0.016691(    99)     0
     34  H       33   0.007544(    33)     30  -0.000335(    67)     27  -0.017029(   100)     0
     35  H       33   0.006391(    34)     30   0.003484(    68)     27  -0.017433(   101)     0
     36  H       30   0.007825(    35)     27  -0.002707(    69)     24   0.014152(   102)     0
 -----------------------------------------------------------------------------------------------
 Internal  Forces:  Max     0.017433359 RMS     0.005896189

 GradGradGradGradGradGradGradGradGradGradGradGradGradGradGradGradGradGrad
 Berny optimization.
 Search for a local minimum.
 Step number   1 out of a maximum of  200
 All quantities printed in internal units (Hartrees-Bohrs-Radians)
 Second derivative matrix not updated -- first step.
 ITU=  0
     Eigenvalues ---    0.01014   0.01016   0.01028   0.01028   0.01028
     Eigenvalues ---    0.01029   0.01039   0.01072   0.01311   0.01977
     Eigenvalues ---    0.08427   0.13370   0.15083   0.15094   0.15113
     Eigenvalues ---    0.15114   0.15115   0.15120   0.15130   0.15296
     Eigenvalues ---    0.15819   0.16000   0.17237   0.17292   0.17292
     Eigenvalues ---    0.17293   0.17293   0.17293   0.17306   0.17325
     Eigenvalues ---    0.17543   0.19879   0.20946   0.23861   0.29418
     Eigenvalues ---    0.29426   0.29460   0.29461   0.29462   0.29462
     Eigenvalues ---    0.29463   0.29566   0.30331   0.32194   0.33834
     Eigenvalues ---    0.33966   0.33967   0.34027   0.34033   0.34033
     Eigenvalues ---    0.34036   0.34036   0.34037   0.34037   0.34037
     Eigenvalues ---    0.34037   0.34037   0.34037   0.34037   0.34037
     Eigenvalues ---    0.34064   0.34104   0.34104   0.34276   0.34277
     Eigenvalues ---    0.34299   0.35012   0.35313   0.35332   0.36582
     Eigenvalues ---    0.36628   0.36659   0.36681   0.36682   0.36682
     Eigenvalues ---    0.36687   0.36695   0.37162   0.39241   0.39324
     Eigenvalues ---    0.39326   0.39326   0.39328   0.39329   0.39338
     Eigenvalues ---    0.39352   0.39418   0.39725   0.42862   0.42864
     Eigenvalues ---    0.42864   0.42864   0.42875   0.42884   0.42899
     Eigenvalues ---    0.42928   0.43149   0.48000   0.53119   0.57454
     Eigenvalues --- 1000.000001000.00000
 RFO step:  Lambda=-1.01140858D-02 EMin= 1.01410625D-02
 Linear search not attempted -- first point.
 Variable       Old X    -DE/DX   Delta X   Delta X   Delta X     New X
                                 (Linear)    (Quad)   (Total)
    B1        2.87308   0.00149   0.00000   0.00475   0.00475   2.87783
    B2        2.06829   0.00478   0.00000   0.01354   0.01354   2.08182
    A2        1.92443   0.00668   0.00000   0.03055   0.03055   1.95497
    B3        2.06866   0.00515   0.00000   0.01460   0.01460   2.08326
    A3        1.93731   0.00207   0.00000   0.00021   0.00021   1.93752
    D3        4.19337  -0.00109   0.00000  -0.00912  -0.00912   4.18424
    B4        2.06865   0.00516   0.00000   0.01462   0.01462   2.08327
    A4        1.93737   0.00206   0.00000   0.00034   0.00034   1.93771
    D4        2.08990   0.00109   0.00000   0.00960   0.00960   2.09951
    B5        2.88837  -0.00299   0.00000  -0.00979  -0.00979   2.87858
    A5        1.94593   0.01039   0.00000   0.02880   0.02880   1.97473
    D5        3.14200  -0.00001   0.00000  -0.00204  -0.00204   3.13997
    B6        2.07156   0.00600   0.00000   0.01710   0.01710   2.08865
    A6        1.90492   0.00509   0.00000   0.01117   0.01117   1.91609
    D6        1.02042  -0.00113   0.00000  -0.00841  -0.00841   1.01202
    B7        2.07156   0.00601   0.00000   0.01710   0.01710   2.08866
    A7        1.90497   0.00508   0.00000   0.01064   0.01064   1.91561
    D7        5.26348   0.00115   0.00000   0.00442   0.00442   5.26790
    B8        2.89047  -0.00295   0.00000  -0.00967  -0.00967   2.88080
    A8        1.94309   0.01160   0.00000   0.04035   0.04035   1.98344
    D8        3.14277  -0.00004   0.00000  -0.00646  -0.00646   3.13631
    B9        2.07275   0.00635   0.00000   0.01812   0.01812   2.09087
    A9        1.91232   0.00111   0.00000  -0.00625  -0.00625   1.90607
    D9        1.02439  -0.00218   0.00000  -0.02016  -0.02016   1.00422
   B10        2.07275   0.00635   0.00000   0.01812   0.01812   2.09086
   A10        1.91235   0.00111   0.00000  -0.00583  -0.00583   1.90652
   D10        5.26097   0.00218   0.00000   0.00946   0.00946   5.27043
   B11        2.89051  -0.00291   0.00000  -0.00954  -0.00954   2.88097
   A11        1.94306   0.01169   0.00000   0.04002   0.04002   1.98308
   D11        3.14246  -0.00002   0.00000  -0.00208  -0.00208   3.14038
   B12        2.07269   0.00624   0.00000   0.01779   0.01779   2.09048
   A12        1.91222   0.00122   0.00000  -0.00528  -0.00528   1.90694
   D12        1.02436  -0.00210   0.00000  -0.01651  -0.01651   1.00786
[...]
     5  H    0.008656  -0.009864   0.000445   0.007740  -0.001921  -0.000007
     6  C   -0.024726  -0.024669   0.366725   0.372479   0.372514  -0.039142
     7  H    0.692897  -0.036040  -0.007311   0.009831  -0.011998   0.000335
     8  H   -0.036040   0.692953  -0.007343  -0.012032   0.009828   0.000331
     9  C   -0.007311  -0.007343   4.747706  -0.022011  -0.021929   0.368619
    10  H    0.009831  -0.012032  -0.022011   0.700095  -0.038214  -0.007495
    11  H   -0.011998   0.009828  -0.021929  -0.038214   0.699908  -0.007498
    12  C    0.000335   0.000331   0.368619  -0.007495  -0.007498   4.743327
    13  H    0.008374  -0.002085   0.370110   0.009715  -0.012075  -0.022391
    14  H   -0.002095   0.008389   0.370145  -0.012022   0.009715  -0.022392
    15  C    0.000004   0.000004  -0.040784   0.000407   0.000400   0.372295
    16  H    0.000020  -0.000042  -0.022821   0.008140  -0.002022   0.369823
    17  H   -0.000042   0.000020  -0.022822  -0.002031   0.008125   0.369911
    18  C    0.000000   0.000000   0.007923   0.000001   0.000001  -0.042099
    19  H   -0.000011   0.000004  -0.007138   0.000018  -0.000041  -0.022546
    20  H    0.000004  -0.000011  -0.007147  -0.000041   0.000018  -0.022565
    21  C    0.000000   0.000000  -0.000407   0.000000   0.000000   0.007964
    22  H    0.000000   0.000000   0.000356  -0.000011   0.000005  -0.007214
    23  H    0.000000   0.000000   0.000356   0.000005  -0.000011  -0.007134
    24  C    0.000000   0.000000   0.000006   0.000000   0.000000  -0.000395
    25  H    0.000000   0.000000   0.000003   0.000000   0.000000   0.000349
    26  H    0.000000   0.000000   0.000003   0.000000   0.000000   0.000356
    27  C    0.000000   0.000000   0.000000   0.000000   0.000000   0.000006
    28  H    0.000000   0.000000   0.000000   0.000000   0.000000   0.000001
    29  H    0.000000   0.000000   0.000000   0.000000   0.000000  -0.000001
    30  C    0.000000   0.000000   0.000000   0.000000   0.000000   0.000000
    31  H    0.000000   0.000000   0.000000   0.000000   0.000000   0.000000
    32  H    0.000000   0.000000   0.000000   0.000000   0.000000   0.000000
    33  C    0.000000   0.000000   0.000000   0.000000   0.000000   0.000000
    34  H    0.000000   0.000000   0.000000   0.000000   0.000000   0.000000
    35  H    0.000000   0.000000   0.000000   0.000000   0.000000   0.000000
    36  H    0.000000   0.000000   0.000000   0.000000   0.000000   0.000000
              13         14         15         16         17         18
     1  C    0.000268   0.000275   0.000007   0.000007   0.000007   0.000000
     2  C   -0.006707  -0.006701  -0.000377   0.000292   0.000296   0.000006
     3  H    0.000008   0.000008   0.000000   0.000000   0.000000   0.000000
     4  H   -0.000050   0.000025   0.000000   0.000003  -0.000009   0.000000
     5  H    0.000025  -0.000051   0.000000  -0.000009   0.000003   0.000000
     6  C   -0.023496  -0.023584   0.007666  -0.007096  -0.007062  -0.000401
     7  H    0.008374  -0.002095   0.000004   0.000020  -0.000042   0.000000
     8  H   -0.002085   0.008389   0.000004  -0.000042   0.000020   0.000000
     9  C    0.370110   0.370145  -0.040784  -0.022821  -0.022822   0.007923
    10  H    0.009715  -0.012022   0.000407   0.008140  -0.002031   0.000001
    11  H   -0.012075   0.009715   0.000400  -0.002022   0.008125   0.000001
    12  C   -0.022391  -0.022392   0.372295   0.369823   0.369911  -0.042099
    13  H    0.699474  -0.037459  -0.007274   0.009664  -0.012009   0.000366
    14  H   -0.037459   0.699629  -0.007303  -0.012046   0.009660   0.000363
    15  C   -0.007274  -0.007303   4.739913  -0.022364  -0.022340   0.372426
    16  H    0.009664  -0.012046  -0.022364   0.699310  -0.037352  -0.007272
    17  H   -0.012009   0.009660  -0.022340  -0.037352   0.698932  -0.007252
    18  C    0.000366   0.000363   0.372426  -0.007272  -0.007252   4.740971
    19  H    0.008184  -0.002023   0.369910   0.009654  -0.012060  -0.022656
    20  H   -0.002032   0.008196   0.369890  -0.012027   0.009656  -0.022745
    21  C    0.000003   0.000003  -0.040956   0.000364   0.000362   0.369318
    22  H    0.000019  -0.000040  -0.022127   0.008188  -0.002016   0.369850
    23  H   -0.000041   0.000019  -0.022064  -0.002023   0.008167   0.369785
    24  C    0.000000   0.000000   0.007685   0.000004   0.000002  -0.039170
    25  H   -0.000011   0.000005  -0.007161   0.000019  -0.000040  -0.022025
    26  H    0.000005  -0.000011  -0.007113  -0.000040   0.000019  -0.022534
    27  C    0.000000   0.000000  -0.000374   0.000000   0.000000   0.007518
    28  H    0.000000   0.000000   0.000401  -0.000011   0.000004  -0.007461
    29  H    0.000000   0.000000   0.000385   0.000005  -0.000011  -0.007270
    30  C    0.000000   0.000000   0.000006   0.000000   0.000000  -0.000384
    31  H    0.000000   0.000000   0.000005   0.000000   0.000000   0.000254
    32  H    0.000000   0.000000  -0.000008   0.000000   0.000000   0.000458
    33  C    0.000000   0.000000   0.000000   0.000000   0.000000   0.000007
    34  H    0.000000   0.000000   0.000000   0.000000   0.000000   0.000001
    35  H    0.000000   0.000000   0.000000   0.000000   0.000000   0.000000
    36  H    0.000000   0.000000   0.000000   0.000000   0.000000   0.000001
              19         20         21         22         23         24
     1  C    0.000000   0.000000   0.000000   0.000000   0.000000   0.000000
     2  C    0.000003   0.000003   0.000000   0.000000   0.000000   0.000000
     3  H    0.000000   0.000000   0.000000   0.000000   0.000000   0.000000
     4  H    0.000000   0.000000   0.000000   0.000000   0.000000   0.000000
     5  H    0.000000   0.000000   0.000000   0.000000   0.000000   0.000000
     6  C    0.000346   0.000354   0.000006   0.000003   0.000004   0.000000
     7  H   -0.000011   0.000004   0.000000   0.000000   0.000000   0.000000
     8  H    0.000004  -0.000011   0.000000   0.000000   0.000000   0.000000
     9  C   -0.007138  -0.007147  -0.000407   0.000356   0.000356   0.000006
    10  H    0.000018  -0.000041   0.000000  -0.000011   0.000005   0.000000
    11  H   -0.000041   0.000018   0.000000   0.000005  -0.000011   0.000000
    12  C   -0.022546  -0.022565   0.007964  -0.007214  -0.007134  -0.000395
    13  H    0.008184  -0.002032   0.000003   0.000019  -0.000041   0.000000
    14  H   -0.002023   0.008196   0.000003  -0.000040   0.000019   0.000000
    15  C    0.369910   0.369890  -0.040956  -0.022127  -0.022064   0.007685
    16  H    0.009654  -0.012027   0.000364   0.008188  -0.002023   0.000004
    17  H   -0.012060   0.009656   0.000362  -0.002016   0.008167   0.000002
    18  C   -0.022656  -0.022745   0.369318   0.369850   0.369785  -0.039170
    19  H    0.699046  -0.037350  -0.007272   0.009641  -0.012013   0.000373
    20  H   -0.037350   0.699440  -0.007229  -0.012036   0.009628   0.000344
    21  C   -0.007272  -0.007229   4.752540  -0.022820  -0.022425   0.360910
    22  H    0.009641  -0.012036  -0.022820   0.698651  -0.037215  -0.007164
    23  H   -0.012013   0.009628  -0.022425  -0.037215   0.697623  -0.007105
    24  C    0.000373   0.000344   0.360910  -0.007164  -0.007105   4.796569
    25  H    0.008161  -0.002023   0.369948   0.009630  -0.012068  -0.023441
    26  H   -0.002017   0.008151   0.369701  -0.011953   0.009629  -0.023378
    27  C    0.000002   0.000002  -0.037510   0.000297   0.000300   0.366305
    28  H    0.000017  -0.000043  -0.019313   0.008124  -0.002010   0.369203
    29  H   -0.000037   0.000016  -0.022748  -0.001997   0.007809   0.373833
    30  C    0.000000   0.000000   0.007700   0.000011  -0.000002  -0.054542
    31  H   -0.000011   0.000004  -0.005041   0.000020  -0.000031  -0.025285
    32  H    0.000005  -0.000011  -0.010840  -0.000050   0.000016  -0.021932
    33  C    0.000000   0.000000  -0.000422   0.000000  -0.000002   0.005050
    34  H    0.000000   0.000000  -0.000060   0.000000   0.000000   0.000644
    35  H    0.000000   0.000000   0.000017   0.000000   0.000000  -0.000393
    36  H    0.000000   0.000000   0.000090  -0.000007   0.000003  -0.004585
              25         26         27         28         29         30
     1  C    0.000000   0.000000   0.000000   0.000000   0.000000   0.000000
     2  C    0.000000   0.000000   0.000000   0.000000   0.000000   0.000000
     3  H    0.000000   0.000000   0.000000   0.000000   0.000000   0.000000
     4  H    0.000000   0.000000   0.000000   0.000000   0.000000   0.000000
     5  H    0.000000   0.000000   0.000000   0.000000   0.000000   0.000000
     6  C    0.000000   0.000000   0.000000   0.000000   0.000000   0.000000
     7  H    0.000000   0.000000   0.000000   0.000000   0.000000   0.000000
     8  H    0.000000   0.000000   0.000000   0.000000   0.000000   0.000000
     9  C    0.000003   0.000003   0.000000   0.000000   0.000000   0.000000
    10  H    0.000000   0.000000   0.000000   0.000000   0.000000   0.000000
    11  H    0.000000   0.000000   0.000000   0.000000   0.000000   0.000000
    12  C    0.000349   0.000356   0.000006   0.000001  -0.000001   0.000000
    13  H   -0.000011   0.000005   0.000000   0.000000   0.000000   0.000000
    14  H    0.000005  -0.000011   0.000000   0.000000   0.000000   0.000000
    15  C   -0.007161  -0.007113  -0.000374   0.000401   0.000385   0.000006
    16  H    0.000019  -0.000040   0.000000  -0.000011   0.000005   0.000000
    17  H   -0.000040   0.000019   0.000000   0.000004  -0.000011   0.000000
    18  C   -0.022025  -0.022534   0.007518  -0.007461  -0.007270  -0.000384
    19  H    0.008161  -0.002017   0.000002   0.000017  -0.000037   0.000000
    20  H   -0.002023   0.008151   0.000002  -0.000043   0.000016   0.000000
    21  C    0.369948   0.369701  -0.037510  -0.019313  -0.022748   0.007700
    22  H    0.009630  -0.011953   0.000297   0.008124  -0.001997   0.000011
    23  H   -0.012068   0.009629   0.000300  -0.002010   0.007809  -0.000002
    24  C   -0.023441  -0.023378   0.366305   0.369203   0.373833  -0.054542
    25  H    0.697852  -0.037398  -0.006596   0.009569  -0.011796   0.000221
    26  H   -0.037398   0.699632  -0.006921  -0.012202   0.009591   0.000519
    27  C   -0.006596  -0.006921   4.743468  -0.025483  -0.031884   0.369586
    28  H    0.009569  -0.012202  -0.025483   0.693984  -0.037128  -0.007782
    29  H   -0.011796   0.009591  -0.031884  -0.037128   0.689100   0.003712
    30  C    0.000221   0.000519   0.369586  -0.007782   0.003712   4.745022
    31  H    0.007525  -0.001994   0.371878   0.009097  -0.011663  -0.026207
    32  H   -0.001945   0.009140   0.363427  -0.010893   0.009935  -0.011649
    33  C    0.000046  -0.000021  -0.052236   0.000364   0.000725   0.693819
    34  H   -0.000012   0.000006  -0.024222   0.000018   0.000077  -0.020922
    35  H    0.000000  -0.000001   0.010537   0.000027  -0.000061  -0.009238
    36  H    0.000020  -0.000027  -0.059570   0.006839  -0.001455   0.391863
              31         32         33         34         35         36
     1  C    0.000000   0.000000   0.000000   0.000000   0.000000   0.000000
     2  C    0.000000   0.000000   0.000000   0.000000   0.000000   0.000000
     3  H    0.000000   0.000000   0.000000   0.000000   0.000000   0.000000
     4  H    0.000000   0.000000   0.000000   0.000000   0.000000   0.000000
     5  H    0.000000   0.000000   0.000000   0.000000   0.000000   0.000000
     6  C    0.000000   0.000000   0.000000   0.000000   0.000000   0.000000
     7  H    0.000000   0.000000   0.000000   0.000000   0.000000   0.000000
     8  H    0.000000   0.000000   0.000000   0.000000   0.000000   0.000000
     9  C    0.000000   0.000000   0.000000   0.000000   0.000000   0.000000
    10  H    0.000000   0.000000   0.000000   0.000000   0.000000   0.000000
    11  H    0.000000   0.000000   0.000000   0.000000   0.000000   0.000000
    12  C    0.000000   0.000000   0.000000   0.000000   0.000000   0.000000
    13  H    0.000000   0.000000   0.000000   0.000000   0.000000   0.000000
    14  H    0.000000   0.000000   0.000000   0.000000   0.000000   0.000000
    15  C    0.000005  -0.000008   0.000000   0.000000   0.000000   0.000000
    16  H    0.000000   0.000000   0.000000   0.000000   0.000000   0.000000
    17  H    0.000000   0.000000   0.000000   0.000000   0.000000   0.000000
    18  C    0.000254   0.000458   0.000007   0.000001   0.000000   0.000001
    19  H   -0.000011   0.000005   0.000000   0.000000   0.000000   0.000000
    20  H    0.000004  -0.000011   0.000000   0.000000   0.000000   0.000000
    21  C   -0.005041  -0.010840  -0.000422  -0.000060   0.000017   0.000090
    22  H    0.000020  -0.000050   0.000000   0.000000   0.000000  -0.000007
    23  H   -0.000031   0.000016  -0.000002   0.000000   0.000000   0.000003
    24  C   -0.025285  -0.021932   0.005050   0.000644  -0.000393  -0.004585
    25  H    0.007525  -0.001945   0.000046  -0.000012   0.000000   0.000020
    26  H   -0.001994   0.009140  -0.000021   0.000006  -0.000001  -0.000027
    27  C    0.371878   0.363427  -0.052236  -0.024222   0.010537  -0.059570
    28  H    0.009097  -0.010893   0.000364   0.000018   0.000027   0.006839
    29  H   -0.011663   0.009935   0.000725   0.000077  -0.000061  -0.001455
    30  C   -0.026207  -0.011649   0.693819  -0.020922  -0.009238   0.391863
    31  H    0.683884  -0.032145  -0.010342   0.009147  -0.000144   0.008896
    32  H   -0.032145   0.671319  -0.003088   0.000170  -0.000463  -0.006103
    33  C   -0.010342  -0.003088   4.730091   0.387539   0.374667  -0.035717
    34  H    0.009147   0.000170   0.387539   0.649802  -0.049986   0.009644
    35  H   -0.000144  -0.000463   0.374667  -0.049986   0.648146  -0.017328
    36  H    0.008896  -0.006103  -0.035717   0.009644  -0.017328   0.679423
 Mulliken charges:
               1
     1  C   -0.062121
     2  C   -0.077826
     3  H    0.039249
     4  H    0.035147
     5  H    0.035044
     6  C   -0.062489
     7  H    0.028161
     8  H    0.028117
     9  C   -0.040032
    10  H    0.020325
    11  H    0.020458
    12  C   -0.039728
    13  H    0.019414
    14  H    0.019295
    15  C   -0.041161
    16  H    0.019631
    17  H    0.019882
    18  C   -0.037981
    19  H    0.019808
    20  H    0.019554
    21  C   -0.041885
    22  H    0.019854
    23  H    0.020798
    24  C   -0.073538
    25  H    0.021169
    26  H    0.018859
    27  C    0.011470
    28  H    0.024677
    29  H    0.030864
    30  C   -0.081732
    31  H    0.022152
    32  H    0.044658
    33  C   -0.090481
    34  H    0.038155
    35  H    0.044220
    36  H    0.028014
 Sum of Mulliken charges =   0.00000
 Mulliken charges with hydrogens summed into heavy atoms:
               1
     1  C    0.047318
     2  C   -0.021548
     6  C   -0.021706
     9  C   -0.001322
    12  C   -0.000215
    15  C   -0.001799
    18  C    0.002671
    21  C   -0.001857
    24  C   -0.017997
    27  C    0.078280
    30  C   -0.053719
    33  C   -0.008106
 Electronic spatial extent (au):  <R**2>=           7059.4764
 Charge=              0.0000 electrons
 Dipole moment (field-independent basis, Debye):
    X=             -0.4084    Y=              0.1474    Z=             -0.1986  Tot=              0.4775
 Quadrupole moment (field-independent basis, Debye-Ang):
   XX=            -83.7473   YY=            -81.2871   ZZ=            -79.1544
   XY=              0.1056   XZ=             -0.7489   YZ=              1.1786
 Traceless Quadrupole moment (field-independent basis, Debye-Ang):
   XX=             -2.3510   YY=              0.1092   ZZ=              2.2418
   XY=              0.1056   XZ=             -0.7489   YZ=              1.1786
 Octapole moment (field-independent basis, Debye-Ang**2):
  XXX=            -16.7211  YYY=              0.5418  ZZZ=             -0.3640  XYY=             -2.6252
  XXY=              1.1517  XXZ=             -2.1926  XZZ=             -1.3747  YZZ=              0.6982
  YYZ=             -0.7982  XYZ=              6.7757
 Hexadecapole moment (field-independent basis, Debye-Ang**3):
 XXXX=          -9523.5947 YYYY=           -270.4132 ZZZZ=           -179.1073 XXXY=            -60.3879
 XXXZ=              8.8743 YYYX=              2.7777 YYYZ=              2.9150 ZZZX=             -2.2839
 ZZZY=              1.2394 XXYY=          -1643.8288 XXZZ=          -1593.8217 YYZZ=            -69.5706
 XXYZ=             47.4424 YYXZ=             -4.4214 ZZXY=              7.2548
 N-N= 6.520599253297D+02 E-N=-2.390200237874D+03  KE= 4.648813407808D+02
 1\1\GINC-NODE0150\POpt\RM06\def2SVP\C12H24\JGOODPAS\17-Oct-2017\1\\# O
 pt=(Z-mat,maxcycle=200) m06/def2svp Integral=SuperFineGrid\\C12H24\\0,
 1\C\C,1,B1\H,1,B2,2,A2\H,1,B3,2,A3,3,D3,0\H,1,B4,2,A4,3,D4,0\C,2,B5,1,
 A5,3,D5,0\H,2,B6,1,A6,3,D6,0\H,2,B7,1,A7,3,D7,0\C,6,B8,2,A8,1,D8,0\H,6
 ,B9,2,A9,1,D9,0\H,6,B10,2,A10,1,D10,0\C,9,B11,6,A11,2,D11,0\H,9,B12,6,
 A12,2,D12,0\H,9,B13,6,A13,2,D13,0\C,12,B14,9,A14,6,D14,0\H,12,B15,9,A1
 5,6,D15,0\H,12,B16,9,A16,6,D16,0\C,15,B17,12,A17,9,D17,0\H,15,B18,12,A
 18,9,D18,0\H,15,B19,12,A19,9,D19,0\C,18,B20,15,A20,12,D20,0\H,18,B21,1
 5,A21,12,D21,0\H,18,B22,15,A22,12,D22,0\C,21,B23,18,A23,15,D23,0\H,21,
 B24,18,A24,15,D24,0\H,21,B25,18,A25,15,D25,0\C,24,B26,21,A26,18,D26,0\
 H,24,B27,21,A27,18,D27,0\H,24,B28,21,A28,18,D28,0\C,27,B29,24,A29,21,D
 29,0\H,27,B30,24,A30,21,D30,0\H,27,B31,24,A31,21,D31,0\C,30,B32,27,A32
 ,24,D32,0\H,33,B33,30,A33,27,D33,0\H,33,B34,30,A34,27,D34,0\H,30,B35,2
 7,A35,24,D35,0\\B1=1.51593629\B2=1.10118243\A2=112.26260468\B3=1.10338
 221\A3=111.19672478\D3=239.55996824\B4=1.1033956\A4=111.18788176\D4=12
 0.41871432\B5=1.51870427\A5=113.12060121\D5=180.10709352\B6=1.10692102
 \A6=109.99992341\D6=57.8527109\B7=1.10691845\A7=109.9984429\D7=302.352
 88237\B8=1.517471\A8=113.75543996\D8=180.04475119\B9=1.10863924\A9=109
 .36593519\D9=57.39625201\B10=1.10862924\A10=109.37702192\D10=302.70559
 229\B11=1.51761248\A11=113.75365886\D11=180.10388791\B12=1.1084676\A12
 =109.38912753\D12=57.47533932\B13=1.10847414\A13=109.38824651\D13=302.
 73001167\B14=1.51759495\A14=113.72101242\D14=180.05061651\B15=1.108433
 62\A15=109.39397626\D15=57.43335523\B16=1.10841569\A16=109.40410991\D1
 6=302.67638512\B17=1.51760926\A17=113.7210191\D17=180.07717933\B18=1.1
 0842199\A18=109.39219459\D18=57.45781383\B19=1.10843761\A19=109.391839
 53\D19=302.70787047\B20=1.51752764\A20=113.70630083\D20=180.06224635\B
 21=1.10841147\A21=109.39560026\D21=57.44348995\B22=1.10831985\A22=109.
 40621118\D22=302.67472036\B23=1.51732802\A23=113.69564348\D23=180.0839
 862\B24=1.10840026\A24=109.39411553\D24=57.47314914\B25=1.10856726\A25
 =109.42288487\D25=302.70227427\B26=1.52226255\A26=113.41899732\D26=180
 .11055644\B27=1.10826293\A27=109.45077466\D27=57.72496671\B28=1.107212
 05\A28=109.64221994\D28=302.68061827\B29=1.4935677\A29=114.41549938\D2
 9=182.98003994\B30=1.10680073\A30=110.13808402\D30=58.55456361\B31=1.1
 0868689\A31=108.6015794\D31=303.2580969\B32=1.33300106\A32=125.6142331
 3\D32=224.46277451\B33=1.09710643\A33=121.25712503\B34=1.09418218\A34=
 121.91580629\B35=1.10144003\A35=115.04566648\D35=55.64685777\D33=15.\D
 34=195.\\Version=ES64L-G09RevD.01\State=1-A\HF=-470.9767\RMSD=6.051e-0
 9\RMSF=1.740e-03\Dipole=0.1416041,-0.0761339,-0.0971453\Quadrupole=-0.
 6636028,1.772923,-1.1093202,0.9578204,0.8189696,-0.0929894\PG=C01 [X(C
 12H24)]\\@


 READER, WHETHER YOU BE DILETTANTE OR PROFESSOR ... SHOW YOURSELF TO BE
 MORE HUMAN THAN CRITICAL, AND THEN YOUR PLEASURE WILL INCREASE.
                                           -- DOMENICO SCARLATTI (1738)
 Job cpu time:       0 days  2 hours 25 minutes 33.3 seconds.
 File lengths (MBytes):  RWF=     40 Int=      0 D2E=      0 Chk=     18 Scr=      1
 Normal termination of Gaussian 09 at Tue Oct 17 17:06:42 2017.
8402.15user 331.13system 19:46.38elapsed 736%CPU (0avgtext+0avgdata 7496212maxresident)k
328560inputs+844832outputs (236major+208090540minor)pagefaults 0swaps
