 Entering Gaussian System, Link 0=g09
 Initial command:
 /panfs/roc/msisoft/gaussian/g09.e01_mesabi/g09/l1.exe "/scratch/graha682/4575958.mesabim3.msi.umn.edu/Gau-3045.inp" -scrdir="/scratch/graha682/4575958.mesabim3.msi.umn.edu/"
 Entering Link 1 = /panfs/roc/msisoft/gaussian/g09.e01_mesabi/g09/l1.exe PID=      3046.
  
 Copyright (c) 1988,1990,1992,1993,1995,1998,2003,2009,2015,
            Gaussian, Inc.  All Rights Reserved.
  
 This is part of the Gaussian(R) 09 program.  It is based on
 the Gaussian(R) 03 system (copyright 2003, Gaussian, Inc.),
 the Gaussian(R) 98 system (copyright 1998, Gaussian, Inc.),
 the Gaussian(R) 94 system (copyright 1995, Gaussian, Inc.),
 the Gaussian 92(TM) system (copyright 1992, Gaussian, Inc.),
 the Gaussian 90(TM) system (copyright 1990, Gaussian, Inc.),
 the Gaussian 88(TM) system (copyright 1988, Gaussian, Inc.),
 the Gaussian 86(TM) system (copyright 1986, Carnegie Mellon
 University), and the Gaussian 82(TM) system (copyright 1983,
 Carnegie Mellon University). Gaussian is a federally registered
 trademark of Gaussian, Inc.
  
 This software contains proprietary and confidential information,
 including trade secrets, belonging to Gaussian, Inc.
  
 This software is provided under written license and may be
 used, copied, transmitted, or stored only in accord with that
 written license.
  
 The following legend is applicable only to US Government
 contracts under FAR:
  
                    RESTRICTED RIGHTS LEGEND
  
 Use, reproduction and disclosure by the US Government is
 subject to restrictions as set forth in subparagraphs (a)
 and (c) of the Commercial Computer Software - Restricted
 Rights clause in FAR 52.227-19.
  
 Gaussian, Inc.
 340 Quinnipiac St., Bldg. 40, Wallingford CT 06492
  
  
 ---------------------------------------------------------------
 Warning -- This program may not be used in any manner that
 competes with the business of Gaussian, Inc. or will provide
 assistance to any competitor of Gaussian, Inc.  The licensee
 of this program is prohibited from giving any competitor of
 Gaussian, Inc. access to this program.  By using this program,
 the user acknowledges that Gaussian, Inc. is engaged in the
 business of creating and licensing software in the field of
 computational chemistry and represents and warrants to the
 licensee that it is not a competitor of Gaussian, Inc. and that
 it will not use this program in any manner prohibited above.
 ---------------------------------------------------------------
  

 Cite this work as:
 Gaussian 09, Revision E.01,
 M. J. Frisch, G. W. Trucks, H. B. Schlegel, G. E. Scuseria, 
 M. A. Robb, J. R. Cheeseman, G. Scalmani, V. Barone, B. Mennucci, 
 G. A. Petersson, H. Nakatsuji, M. Caricato, X. Li, H. P. Hratchian, 
 A. F. Izmaylov, J. Bloino, G. Zheng, J. L. Sonnenberg, M. Hada, 
 M. Ehara, K. Toyota, R. Fukuda, J. Hasegawa, M. Ishida, T. Nakajima, 
 Y. Honda, O. Kitao, H. Nakai, T. Vreven, J. A. Montgomery, Jr., 
 J. E. Peralta, F. Ogliaro, M. Bearpark, J. J. Heyd, E. Brothers, 
 K. N. Kudin, V. N. Staroverov, T. Keith, R. Kobayashi, J. Normand, 
 K. Raghavachari, A. Rendell, J. C. Burant, S. S. Iyengar, J. Tomasi, 
 M. Cossi, N. Rega, J. M. Millam, M. Klene, J. E. Knox, J. B. Cross, 
 V. Bakken, C. Adamo, J. Jaramillo, R. Gomperts, R. E. Stratmann, 
 O. Yazyev, A. J. Austin, R. Cammi, C. Pomelli, J. W. Ochterski, 
 R. L. Martin, K. Morokuma, V. G. Zakrzewski, G. A. Voth, 
 P. Salvador, J. J. Dannenberg, S. Dapprich, A. D. Daniels, 
 O. Farkas, J. B. Foresman, J. V. Ortiz, J. Cioslowski, 
 and D. J. Fox, Gaussian, Inc., Wallingford CT, 2013.
 
 ******************************************
 Gaussian 09:  ES64L-G09RevE.01 30-Nov-2015
                 4-Dec-2017 
 ******************************************
 %LindaWorkers=in-cn0003
 %NProcShared=24
 Will use up to   24 processors via shared memory.
 %Mem=59800mb
 %chk=20171201_def2svp_m06_45c12h24.chk
 SetLPE:  input flags=" -workerwait 900 -opt "Tsnet.Node.lindarsharg: ssh " "
 SetLPE:    new flags=" -workerwait 900 -opt "Tsnet.Node.lindarsharg: ssh "  -nodelist 'in-cn0003'"
 Will use up to    1 processors via Linda.
 -----------------------------
 # hf/sto-3g geom=connectivity
 -----------------------------
 1/38=1,57=2/1;
 2/12=2,17=6,18=5,40=1/2;
 3/6=3,11=9,16=1,25=1,30=1/1,2,3;
 4//1;
 5/5=2,38=5/2;
 6/7=2,8=2,9=2,10=2,28=1/1;
 99/5=1,9=1/99;
 -------------------
 Title Card Required
 -------------------
 Symbolic Z-matrix:
 Charge =  0 Multiplicity = 1
 C                    -6.85444  -0.13488  -0.16841 
 H                    -7.04021  -0.81833   0.67765 
 H                    -6.88444  -0.74368  -1.08813 
 H                    -7.69705   0.57265  -0.21285 
 C                    -5.52036   0.56989  -0.02104 
 H                    -5.36871   1.27332  -0.86199 
 H                    -5.52345   1.19984   0.8891 
 C                    -4.34402  -0.3886    0.0425 
 H                    -4.3351   -1.02083  -0.8681 
 H                    -4.48926  -1.09459   0.8849 
 C                    -3.00139   0.30277   0.18946 
 H                    -3.00709   0.93031   1.10287 
 H                    -2.85037   1.00933  -0.6497 
 C                    -1.82468  -0.66362   0.24693 
 H                    -1.80066  -1.27769  -0.67321 
 H                    -1.99464  -1.37372   1.0812 
 C                    -0.51189   0.02301   0.42809 
 H                    -0.40546   0.63496   1.33864 
 C                     0.51189  -0.02301  -0.42809 
 H                     0.29888   0.08085  -1.50454 
 C                     1.94164  -0.2396   -0.05853 
 H                     2.03928  -0.28696   1.04262 
 H                     2.54795   0.63125  -0.37968 
 C                     2.53596  -1.49663  -0.68185 
 H                     2.41507  -1.45397  -1.78263 
 H                     1.94706  -2.37634  -0.35697 
 C                     3.99982  -1.70533  -0.34155 
 H                     4.58393  -0.82162  -0.66873 
 H                     4.12043  -1.74168   0.75987 
 C                     4.5963   -2.95985  -0.95547 
 H                     4.00794  -3.83801  -0.62732 
 H                     4.4715   -2.91944  -2.05455 
 C                     6.05855  -3.15533  -0.60646 
 H                     6.47665  -4.0682   -1.0586 
 H                     6.66887  -2.3043   -0.95388 
 H                     6.20141  -3.23109   0.48499 
 
                          Input orientation:                          
 ---------------------------------------------------------------------
 Center     Atomic      Atomic             Coordinates (Angstroms)
 Number     Number       Type             X           Y           Z
 ---------------------------------------------------------------------
      1          6           0       -6.854443   -0.134877   -0.168414
      2          1           0       -7.040212   -0.818328    0.677653
      3          1           0       -6.884443   -0.743683   -1.088126
      4          1           0       -7.697052    0.572652   -0.212848
      5          6           0       -5.520363    0.569890   -0.021040
      6          1           0       -5.368713    1.273324   -0.861988
      7          1           0       -5.523451    1.199843    0.889097
      8          6           0       -4.344023   -0.388597    0.042497
      9          1           0       -4.335099   -1.020835   -0.868101
     10          1           0       -4.489260   -1.094591    0.884904
     11          6           0       -3.001393    0.302765    0.189464
     12          1           0       -3.007087    0.930311    1.102873
     13          1           0       -2.850369    1.009328   -0.649702
     14          6           0       -1.824677   -0.663624    0.246928
     15          1           0       -1.800656   -1.277687   -0.673205
     16          1           0       -1.994641   -1.373719    1.081199
     17          6           0       -0.511885    0.023005    0.428088
     18          1           0       -0.405457    0.634962    1.338635
     19          6           0        0.511885   -0.023005   -0.428088
     20          1           0        0.298878    0.080854   -1.504543
     21          6           0        1.941644   -0.239602   -0.058526
     22          1           0        2.039278   -0.286956    1.042619
     23          1           0        2.547951    0.631250   -0.379681
     24          6           0        2.535960   -1.496634   -0.681847
     25          1           0        2.415072   -1.453970   -1.782632
     26          1           0        1.947057   -2.376342   -0.356969
     27          6           0        3.999819   -1.705326   -0.341552
     28          1           0        4.583927   -0.821616   -0.668731
     29          1           0        4.120431   -1.741676    0.759867
     30          6           0        4.596304   -2.959848   -0.955467
     31          1           0        4.007944   -3.838008   -0.627324
     32          1           0        4.471501   -2.919437   -2.054554
     33          6           0        6.058550   -3.155332   -0.606460
     34          1           0        6.476648   -4.068198   -1.058599
     35          1           0        6.668866   -2.304299   -0.953882
     36          1           0        6.201410   -3.231088    0.484992
 ---------------------------------------------------------------------
                    Distance matrix (angstroms):
                    1          2          3          4          5
     1  C    0.000000
     2  H    1.103379   0.000000
     3  H    1.103365   1.774207   0.000000
     4  H    1.101164   1.777430   1.777409   0.000000
     5  C    1.515977   2.173767   2.173674   2.185125   0.000000
     6  H    2.161358   3.088594   2.533159   2.516642   1.106802
     7  H    2.161330   2.533434   3.088528   2.516385   1.106887
     8  C    2.532008   2.803128   2.803235   3.497428   1.518720
     9  H    2.760720   3.122179   2.573787   3.777735   2.157028
    10  H    2.761272   2.574224   3.122961   3.778186   2.157407
    11  C    3.894304   4.219862   4.219641   4.720583   2.541826
    12  H    4.189623   4.416407   4.757796   4.884139   2.776624
    13  H    4.192070   4.759935   4.420296   4.885884   2.777983
    14  C    5.074508   5.235577   5.233547   6.018684   3.905312
    15  H    5.205919   5.430357   5.128568   6.197029   4.204174
    16  H    5.168553   5.092062   5.386379   6.162825   4.174118
    17  C    6.372502   6.587046   6.595166   7.234607   5.058226
    18  H    6.667328   6.824143   7.054579   7.455088   5.292940
    19  C    7.371752   7.673941   7.460610   8.233334   6.074967
    20  H    7.280233   7.709264   7.242470   8.114508   6.025239
    21  C    8.797397   9.030538   8.900224   9.674091   7.505880
    22  H    8.977082   9.102345   9.185938   9.854504   7.682039
    23  H    9.435920   9.754594   9.558368  10.246529   8.076514
    24  C    9.502509   9.695948   9.459175  10.450667   8.343353
    25  H    9.501033   9.790784   9.352424  10.431993   8.376774
    26  H    9.084388   9.179807   9.010857  10.085939   8.034643
    27  C   10.968651  11.122402  10.952137  11.917321   9.793529
    28  H   11.469884  11.701853  11.476300  12.368276  10.220199
    29  H   11.130650  11.199075  11.203496  12.081192   9.944751
    30  C   11.820301  11.944107  11.693440  12.812363  10.755424
    31  H   11.485436  11.527497  11.332753  12.515296  10.515977
    32  H   11.814750  12.016620  11.602817  12.792977  10.777195
    33  C   13.268776  13.367427  13.174564  14.257257  12.177489
    34  H   13.927722  14.010059  13.768516  14.938091  12.904134
    35  H   13.718718  13.885562  13.643523  14.669887  12.558203
    36  H   13.433867  13.461021  13.412734  14.426458  12.333024
                    6          7          8          9         10
     6  H    0.000000
     7  H    1.759444   0.000000
     8  C    2.151758   2.151958   0.000000
     9  H    2.516259   3.071048   1.108600   0.000000
    10  H    3.071171   2.516743   1.108680   1.761315   0.000000
    11  C    2.766178   2.766769   1.517312   2.156185   2.156383
    12  H    3.091216   2.539771   2.156690   3.074951   2.518844
    13  H    2.541027   3.090237   2.159707   2.524615   3.076923
    14  C    4.188276   4.191160   2.542545   2.770038   2.773580
    15  H    4.390254   4.736892   2.787728   2.554870   3.112847
    16  H    4.708203   4.371799   2.751175   3.066275   2.517850
    17  C    5.178453   5.168488   3.873419   4.169733   4.156587
    18  H    5.466640   5.168659   4.270825   4.801399   4.458102
    19  C    6.037398   6.297270   4.892336   4.968152   5.280501
    20  H    5.827217   6.393838   4.916325   4.805468   5.478814
    21  C    7.508383   7.661438   6.288244   6.376774   6.555730
    22  H    7.806429   7.709021   6.461974   6.694931   6.580194
    23  H    7.957289   8.190276   6.979801   7.095373   7.355273
    24  C    8.377886   8.642509   7.006182   6.890031   7.209027
    25  H    8.298978   8.786411   7.081771   6.825598   7.410446
    26  H    8.191190   8.375576   6.609719   6.447025   6.679170
    27  C    9.844420  10.032307   8.455825   8.379537   8.598934
    28  H   10.172569  10.424597   8.966696   8.923478   9.209290
    29  H   10.087839  10.083338   8.601885   8.640942   8.634879
    30  C   10.827282  11.095715   9.356105   9.139877   9.455878
    31  H   10.681876  10.887009   9.061040   8.809132   9.056249
    32  H   10.762494  11.204134   9.408307   9.086725   9.605505
    33  C   12.258084  12.463827  10.783761  10.613787  10.850213
    34  H   12.995503  13.249459  11.482108  11.234616  11.526955
    35  H   12.558309  12.819055  11.222585  11.078893  11.373139
    36  H   12.488869  12.540687  10.930770  10.850535  10.909399
                   11         12         13         14         15
    11  C    0.000000
    12  H    1.108225   0.000000
    13  H    1.107357   1.761341   0.000000
    14  C    1.523768   2.161334   2.157489   0.000000
    15  H    2.164208   3.079803   2.516523   1.106479   0.000000
    16  H    2.149265   2.516758   3.067116   1.108662   1.767706
    17  C    2.516517   2.739447   2.757349   1.492549   2.136721
    18  H    2.858292   2.628934   3.173520   2.211862   3.106816
    19  C    3.581985   3.954215   3.524142   2.515067   2.642377
    20  H    3.716275   4.295300   3.392724   2.851559   2.635299
    21  C    4.978883   5.216079   4.987254   3.802404   3.931954
    22  H    5.146261   5.191451   5.334130   3.962972   4.320959
    23  H    5.588116   5.757243   5.418276   4.603174   4.758212
    24  C    5.887215   6.308776   5.940827   4.535602   4.342148
    25  H    6.026058   6.588683   5.922520   4.766470   4.362828
    26  H    5.653615   6.132588   5.879094   4.186176   3.918214
    27  C    7.302834   7.624282   7.374916   5.946109   5.825666
    28  H    7.716075   7.989451   7.656466   6.475616   6.400853
    29  H    7.431385   7.619625   7.625416   6.063795   6.109685
    30  C    8.347485   8.785309   8.443979   6.924406   6.620456
    31  H    8.181928   8.656853   8.398430   6.697798   6.348006
    32  H    8.441703   8.984386   8.427253   7.073003   6.628984
    33  C    9.730082  10.089602   9.834384   8.311567   8.080664
    34  H   10.511720  10.936100  10.627404   9.066837   8.743526
    35  H   10.080572  10.407546  10.084071   8.733500   8.536130
    36  H    9.862406  10.124003  10.059988   8.430102   8.318068
                   16         17         18         19         20
    16  H    0.000000
    17  C    2.139149   0.000000
    18  H    2.574214   1.102231   0.000000
    19  C    3.222584   1.335387   2.096604   0.000000
    20  H    3.749943   2.096604   2.981071   1.102231   0.000000
    21  C    4.252004   2.515067   2.868067   1.492549   2.211862
    22  H    4.177923   2.642377   2.629503   2.136721   3.106816
    23  H    5.175830   3.222584   3.416905   2.139149   2.574214
    24  C    4.863105   3.581985   4.156679   2.516517   2.858292
    25  H    5.258663   3.954215   4.696949   2.739447   2.628934
    26  H    4.313996   3.524142   4.180592   2.757349   3.173520
    27  C    6.169906   4.892336   5.263690   3.873419   4.270825
    28  H    6.829687   5.280501   5.571812   4.156587   4.458102
    29  H    6.134554   4.968152   5.144613   4.169733   4.801399
    30  C    7.078444   6.074967   6.572912   5.058226   5.292940
    31  H    6.709903   6.037398   6.584115   5.178453   5.466640
    32  H    7.350727   6.297270   6.923309   5.168488   5.168659
    33  C    8.418802   7.371752   7.741648   6.372502   6.667328
    34  H    9.143396   8.233334   8.673513   7.234607   7.455088
    35  H    8.947843   7.673941   7.996308   6.587046   6.824142
    36  H    8.424995   7.460610   7.702321   6.595166   7.054579
                   21         22         23         24         25
    21  C    0.000000
    22  H    1.106479   0.000000
    23  H    1.108662   1.767706   0.000000
    24  C    1.523768   2.164208   2.149265   0.000000
    25  H    2.161334   3.079803   2.516758   1.108225   0.000000
    26  H    2.157489   2.516523   3.067116   1.107357   1.761341
    27  C    2.542545   2.787728   2.751175   1.517312   2.156690
    28  H    2.773580   3.112847   2.517850   2.156383   2.518844
    29  H    2.770038   2.554870   3.066275   2.156185   3.074951
    30  C    3.905312   4.204174   4.174118   2.541826   2.776624
    31  H    4.188276   4.390254   4.708203   2.766178   3.091216
    32  H    4.191160   4.736892   4.371799   2.766769   2.539771
    33  C    5.074508   5.205919   5.168553   3.894304   4.189623
    34  H    6.018684   6.197029   6.162825   4.720583   4.884139
    35  H    5.235577   5.430357   5.092062   4.219862   4.416406
    36  H    5.233547   5.128568   5.386379   4.219641   4.757796
                   26         27         28         29         30
    26  H    0.000000
    27  C    2.159707   0.000000
    28  H    3.076923   1.108680   0.000000
    29  H    2.524615   1.108600   1.761315   0.000000
    30  C    2.777983   1.518720   2.157407   2.157028   0.000000
    31  H    2.541027   2.151758   3.071171   2.516259   1.106802
    32  H    3.090237   2.151958   2.516743   3.071048   1.106887
    33  C    4.192070   2.532008   2.761272   2.760720   1.515977
    34  H    4.885884   3.497428   3.778186   3.777735   2.185125
    35  H    4.759935   2.803128   2.574224   3.122179   2.173766
    36  H    4.420296   2.803235   3.122961   2.573787   2.173674
                   31         32         33         34         35
    31  H    0.000000
    32  H    1.759444   0.000000
    33  C    2.161358   2.161330   0.000000
    34  H    2.516642   2.516385   1.101164   0.000000
    35  H    3.088593   2.533433   1.103378   1.777429   0.000000
    36  H    2.533159   3.088528   1.103365   1.777409   1.774207
                   36
    36  H    0.000000
 Stoichiometry    C12H24
 Framework group  C1[X(C12H24)]
 Deg. of freedom   102
 Full point group                 C1      NOp   1
 Largest Abelian subgroup         C1      NOp   1
 Largest concise Abelian subgroup C1      NOp   1
                         Standard orientation:                         
 ---------------------------------------------------------------------
 Center     Atomic      Atomic             Coordinates (Angstroms)
 Number     Number       Type             X           Y           Z
 ---------------------------------------------------------------------
      1          6           0        6.616045   -0.948209    0.096726
      2          1           0        6.685506   -1.380276   -0.916160
      3          1           0        6.444518   -1.785787    0.794190
      4          1           0        7.598201   -0.512836    0.338348
      5          6           0        5.498945    0.073100    0.181580
      6          1           0        5.467618    0.516788    1.195074
      7          1           0        5.706987    0.919362   -0.500886
      8          6           0        4.134828   -0.507196   -0.148501
      9          1           0        3.920558   -1.354276    0.533801
     10          1           0        4.159419   -0.951258   -1.164067
     11          6           0        3.006232    0.503687   -0.067124
     12          1           0        3.216429    1.348035   -0.753461
     13          1           0        2.976364    0.950634    0.945588
     14          6           0        1.639505   -0.085589   -0.393743
     15          1           0        1.414330   -0.914930    0.303240
     16          1           0        1.686598   -0.541861   -1.403064
     17          6           0        0.540798    0.923539   -0.346796
     18          1           0        0.638417    1.780079   -1.033618
     19          6           0       -0.514884    0.882980    0.469996
     20          1           0       -0.349370    0.614371    1.526106
     21          6           0       -1.929913    1.139881    0.070751
     22          1           0       -1.968654    1.439689   -0.993631
     23          1           0       -2.330586    2.000655    0.643167
     24          6           0       -2.842518   -0.058488    0.300828
     25          1           0       -2.782323   -0.368222    1.363186
     26          1           0       -2.460592   -0.922114   -0.277551
     27          6           0       -4.290515    0.205575   -0.067698
     28          1           0       -4.666980    1.071060    0.514006
     29          1           0       -4.348905    0.521267   -1.128793
     30          6           0       -5.204052   -0.987210    0.154169
     31          1           0       -4.822088   -1.848323   -0.426863
     32          1           0       -5.140493   -1.299494    1.214187
     33          6           0       -6.646819   -0.708794   -0.218783
     34          1           0       -7.296441   -1.582211   -0.052365
     35          1           0       -7.057685    0.127000    0.372894
     36          1           0       -6.736741   -0.427004   -1.281761
 ---------------------------------------------------------------------
 Rotational constants (GHZ):      3.8063207      0.1674987      0.1634615
 Standard basis: STO-3G (5D, 7F)
 There are    84 symmetry adapted cartesian basis functions of A   symmetry.
 There are    84 symmetry adapted basis functions of A   symmetry.
    84 basis functions,   252 primitive gaussians,    84 cartesian basis functions
    48 alpha electrons       48 beta electrons
       nuclear repulsion energy       653.7787873393 Hartrees.
 NAtoms=   36 NActive=   36 NUniq=   36 SFac= 1.00D+00 NAtFMM=   60 NAOKFM=F Big=F
 Integral buffers will be    131072 words long.
 Raffenetti 1 integral format.
 Two-electron integral symmetry is turned on.
 One-electron integrals computed using PRISM.
 NBasis=    84 RedAO= T EigKep=  1.87D-01  NBF=    84
 NBsUse=    84 1.00D-06 EigRej= -1.00D+00 NBFU=    84
 ExpMin= 1.69D-01 ExpMax= 7.16D+01 ExpMxC= 7.16D+01 IAcc=1 IRadAn=         1 AccDes= 0.00D+00
 Harris functional with IExCor=  205 and IRadAn=       1 diagonalized for initial guess.
 HarFok:  IExCor=  205 AccDes= 0.00D+00 IRadAn=         1 IDoV= 1 UseB2=F ITyADJ=14
 ICtDFT=  3500011 ScaDFX=  1.000000  1.000000  1.000000  1.000000
 FoFCou: FMM=F IPFlag=           0 FMFlag=      100000 FMFlg1=           0
         NFxFlg=           0 DoJE=T BraDBF=F KetDBF=T FulRan=T
         wScrn=  0.000000 ICntrl=     500 IOpCl=  0 I1Cent=   200000004 NGrid=           0
         NMat0=    1 NMatS0=      1 NMatT0=    0 NMatD0=    1 NMtDS0=    0 NMtDT0=    0
 Petite list used in FoFCou.
 Keep R1 ints in memory in canonical form, NReq=7308129.
 Requested convergence on RMS density matrix=1.00D-08 within 128 cycles.
 Requested convergence on MAX density matrix=1.00D-06.
 Requested convergence on             energy=1.00D-06.
 No special actions if energy rises.
 SCF Done:  E(RHF) =  -462.818888426     A.U. after   11 cycles
            NFock= 11  Conv=0.53D-08     -V/T= 2.0087

 **********************************************************************

            Population analysis using the SCF density.

 **********************************************************************

 Orbital symmetries:
       Occupied  (A) (A) (A) (A) (A) (A) (A) (A) (A) (A) (A) (A)
                 (A) (A) (A) (A) (A) (A) (A) (A) (A) (A) (A) (A)
                 (A) (A) (A) (A) (A) (A) (A) (A) (A) (A) (A) (A)
                 (A) (A) (A) (A) (A) (A) (A) (A) (A) (A) (A) (A)
       Virtual   (A) (A) (A) (A) (A) (A) (A) (A) (A) (A) (A) (A)
                 (A) (A) (A) (A) (A) (A) (A) (A) (A) (A) (A) (A)
                 (A) (A) (A) (A) (A) (A) (A) (A) (A) (A) (A) (A)
 The electronic state is 1-A.
 Alpha  occ. eigenvalues --  -11.04235 -11.04156 -11.04126 -11.04121 -11.03900
 Alpha  occ. eigenvalues --  -11.03882 -11.03540 -11.03514 -11.03423 -11.03280
 Alpha  occ. eigenvalues --  -11.00439 -11.00361  -1.05669  -1.04540  -1.01698
 Alpha  occ. eigenvalues --   -0.98606  -0.94364  -0.89460  -0.84802  -0.79199
 Alpha  occ. eigenvalues --   -0.76348  -0.75057  -0.74785  -0.69162  -0.61934
 Alpha  occ. eigenvalues --   -0.61472  -0.57839  -0.57677  -0.55841  -0.55116
 Alpha  occ. eigenvalues --   -0.53362  -0.53178  -0.52154  -0.51225  -0.48970
 Alpha  occ. eigenvalues --   -0.48251  -0.47084  -0.46304  -0.45127  -0.43665
 Alpha  occ. eigenvalues --   -0.42995  -0.42582  -0.42483  -0.41899  -0.41709
 Alpha  occ. eigenvalues --   -0.41555  -0.39926  -0.23997
 Alpha virt. eigenvalues --    0.27158   0.56593   0.57943   0.58018   0.58986
 Alpha virt. eigenvalues --    0.62178   0.63384   0.66132   0.66444   0.66872
 Alpha virt. eigenvalues --    0.67316   0.68202   0.69086   0.69577   0.70753
 Alpha virt. eigenvalues --    0.71227   0.72622   0.73766   0.73980   0.74282
 Alpha virt. eigenvalues --    0.74585   0.75438   0.76146   0.76492   0.77621
 Alpha virt. eigenvalues --    0.78096   0.78505   0.78900   0.80363   0.80532
 Alpha virt. eigenvalues --    0.80903   0.81220   0.82012   0.82597   0.93105
 Alpha virt. eigenvalues --    1.06502
          Condensed to atoms (all electrons):
               1          2          3          4          5          6
     1  C    4.726423   0.380220   0.380227   0.381563   0.368696  -0.022205
     2  H    0.380220   0.634056  -0.021876  -0.021562  -0.020999   0.001880
     3  H    0.380227  -0.021876   0.633972  -0.021559  -0.021000  -0.002226
     4  H    0.381563  -0.021562  -0.021559   0.629536  -0.019432  -0.002124
     5  C    0.368696  -0.020999  -0.021000  -0.019432   4.726327   0.379358
     6  H   -0.022205   0.001880  -0.002226  -0.002124   0.379358   0.646541
     7  H   -0.022218  -0.002222   0.001880  -0.002127   0.379307  -0.023878
     8  C   -0.022888  -0.002137  -0.002135   0.001242   0.367844  -0.023017
     9  H   -0.002215  -0.000005   0.000393   0.000009  -0.022774  -0.002346
    10  H   -0.002209   0.000393  -0.000005   0.000009  -0.022757   0.001945
    11  C    0.000719   0.000008   0.000008  -0.000015  -0.021709  -0.002211
    12  H    0.000007   0.000002  -0.000001  -0.000000  -0.002154   0.000004
    13  H    0.000007  -0.000001   0.000002  -0.000000  -0.002152   0.000387
    14  C   -0.000005  -0.000000  -0.000000   0.000000   0.000701   0.000007
    15  H   -0.000000   0.000000  -0.000000   0.000000   0.000006   0.000002
    16  H   -0.000000  -0.000000   0.000000   0.000000   0.000006  -0.000001
    17  C    0.000000   0.000000   0.000000  -0.000000  -0.000005  -0.000000
    18  H   -0.000000  -0.000000  -0.000000   0.000000   0.000000   0.000000
    19  C   -0.000000  -0.000000  -0.000000   0.000000   0.000000  -0.000000
    20  H   -0.000000  -0.000000  -0.000000   0.000000   0.000000   0.000000
    21  C    0.000000   0.000000   0.000000  -0.000000  -0.000000  -0.000000
    22  H    0.000000   0.000000   0.000000  -0.000000  -0.000000  -0.000000
    23  H   -0.000000  -0.000000  -0.000000   0.000000   0.000000   0.000000
    24  C    0.000000   0.000000   0.000000  -0.000000  -0.000000  -0.000000
    25  H   -0.000000  -0.000000  -0.000000   0.000000   0.000000  -0.000000
    26  H   -0.000000  -0.000000  -0.000000   0.000000   0.000000   0.000000
    27  C    0.000000   0.000000   0.000000   0.000000   0.000000   0.000000
    28  H    0.000000   0.000000   0.000000   0.000000  -0.000000  -0.000000
    29  H   -0.000000   0.000000  -0.000000   0.000000   0.000000   0.000000
    30  C    0.000000   0.000000   0.000000   0.000000   0.000000  -0.000000
    31  H    0.000000   0.000000   0.000000   0.000000  -0.000000  -0.000000
    32  H    0.000000   0.000000  -0.000000   0.000000   0.000000  -0.000000
    33  C    0.000000   0.000000   0.000000   0.000000   0.000000   0.000000
    34  H    0.000000   0.000000   0.000000   0.000000   0.000000   0.000000
    35  H    0.000000   0.000000   0.000000   0.000000   0.000000   0.000000
    36  H    0.000000   0.000000   0.000000   0.000000   0.000000   0.000000
               7          8          9         10         11         12
     1  C   -0.022218  -0.022888  -0.002215  -0.002209   0.000719   0.000007
     2  H   -0.002222  -0.002137  -0.000005   0.000393   0.000008   0.000002
     3  H    0.001880  -0.002135   0.000393  -0.000005   0.000008  -0.000001
     4  H   -0.002127   0.001242   0.000009   0.000009  -0.000015  -0.000000
     5  C    0.379307   0.367844  -0.022774  -0.022757  -0.021709  -0.002154
     6  H   -0.023878  -0.023017  -0.002346   0.001945  -0.002211   0.000004
     7  H    0.646840  -0.023025   0.001947  -0.002345  -0.002203   0.000392
     8  C   -0.023025   4.740829   0.378428   0.378372   0.368113  -0.022826
     9  H    0.001947   0.378428   0.650693  -0.023934  -0.022775   0.001934
    10  H   -0.002345   0.378372  -0.023934   0.651274  -0.022761  -0.002340
    11  C   -0.002203   0.368113  -0.022775  -0.022761   4.744617   0.378774
    12  H    0.000392  -0.022826   0.001934  -0.002340   0.378774   0.649944
    13  H    0.000004  -0.022641  -0.002283   0.001923   0.379348  -0.023928
    14  C    0.000007  -0.021935  -0.002223  -0.002233   0.359197  -0.022374
    15  H   -0.000001  -0.002037   0.000372  -0.000001  -0.021695   0.001883
    16  H    0.000002  -0.002275   0.000004   0.000448  -0.023474  -0.002284
    17  C   -0.000000   0.000776   0.000009   0.000007  -0.024541  -0.002433
    18  H   -0.000000  -0.000011  -0.000001   0.000001  -0.000555   0.000406
    19  C    0.000000  -0.000006  -0.000000  -0.000000   0.000627   0.000009
    20  H    0.000000  -0.000002  -0.000000  -0.000000   0.000084   0.000000
    21  C   -0.000000   0.000000   0.000000   0.000000  -0.000005  -0.000000
    22  H   -0.000000   0.000000  -0.000000   0.000000  -0.000000  -0.000000
    23  H    0.000000  -0.000000  -0.000000  -0.000000   0.000001   0.000000
    24  C   -0.000000   0.000000   0.000000  -0.000000  -0.000000   0.000000
    25  H    0.000000  -0.000000   0.000000  -0.000000   0.000000  -0.000000
    26  H    0.000000  -0.000000  -0.000000  -0.000000   0.000000   0.000000
    27  C   -0.000000  -0.000000  -0.000000   0.000000   0.000000  -0.000000
    28  H   -0.000000   0.000000  -0.000000   0.000000  -0.000000  -0.000000
    29  H    0.000000  -0.000000  -0.000000   0.000000   0.000000  -0.000000
    30  C    0.000000  -0.000000   0.000000  -0.000000  -0.000000   0.000000
    31  H   -0.000000   0.000000   0.000000   0.000000  -0.000000  -0.000000
    32  H    0.000000  -0.000000   0.000000  -0.000000  -0.000000   0.000000
    33  C    0.000000   0.000000  -0.000000   0.000000   0.000000  -0.000000
    34  H    0.000000   0.000000   0.000000  -0.000000  -0.000000   0.000000
    35  H    0.000000   0.000000   0.000000   0.000000   0.000000  -0.000000
    36  H    0.000000   0.000000  -0.000000   0.000000   0.000000  -0.000000
              13         14         15         16         17         18
     1  C    0.000007  -0.000005  -0.000000  -0.000000   0.000000  -0.000000
     2  H   -0.000001  -0.000000   0.000000  -0.000000   0.000000  -0.000000
     3  H    0.000002  -0.000000  -0.000000   0.000000   0.000000  -0.000000
     4  H   -0.000000   0.000000   0.000000   0.000000  -0.000000   0.000000
     5  C   -0.002152   0.000701   0.000006   0.000006  -0.000005   0.000000
     6  H    0.000387   0.000007   0.000002  -0.000001  -0.000000   0.000000
     7  H    0.000004   0.000007  -0.000001   0.000002  -0.000000  -0.000000
     8  C   -0.022641  -0.021935  -0.002037  -0.002275   0.000776  -0.000011
     9  H   -0.002283  -0.002223   0.000372   0.000004   0.000009  -0.000001
    10  H    0.001923  -0.002233  -0.000001   0.000448   0.000007   0.000001
    11  C    0.379348   0.359197  -0.021695  -0.023474  -0.024541  -0.000555
    12  H   -0.023928  -0.022374   0.001883  -0.002284  -0.002433   0.000406
    13  H    0.648023  -0.022566  -0.002407   0.001919  -0.002251  -0.000009
    14  C   -0.022566   4.725339   0.379444   0.379375   0.380902  -0.026110
    15  H   -0.002407   0.379444   0.639444  -0.023390  -0.022563   0.001698
    16  H    0.001919   0.379375  -0.023390   0.636732  -0.022276  -0.002676
    17  C   -0.002251   0.380902  -0.022563  -0.022276   4.854989   0.381298
    18  H   -0.000009  -0.026110   0.001698  -0.002676   0.381298   0.630927
    19  C    0.000063  -0.026554  -0.004262   0.000081   0.577207  -0.031121
    20  H    0.000050  -0.003317   0.000413   0.000006  -0.030844   0.002371
    21  C   -0.000001   0.000888   0.000024  -0.000020  -0.027029  -0.003138
    22  H    0.000000   0.000020   0.000002  -0.000000  -0.004292   0.000449
    23  H    0.000000  -0.000016  -0.000001  -0.000001   0.001158   0.000110
    24  C    0.000000  -0.000009  -0.000001   0.000005  -0.000140   0.000004
    25  H    0.000000  -0.000000  -0.000001   0.000000   0.000012  -0.000000
    26  H    0.000000  -0.000008   0.000000  -0.000001   0.000123   0.000005
    27  C   -0.000000   0.000000   0.000000  -0.000000  -0.000000  -0.000000
    28  H   -0.000000   0.000000   0.000000  -0.000000  -0.000000   0.000000
    29  H   -0.000000   0.000000  -0.000000  -0.000000   0.000001  -0.000000
    30  C    0.000000  -0.000000  -0.000000   0.000000  -0.000000   0.000000
    31  H    0.000000   0.000000   0.000000   0.000000  -0.000000  -0.000000
    32  H    0.000000  -0.000000  -0.000000   0.000000   0.000000  -0.000000
    33  C   -0.000000   0.000000   0.000000  -0.000000   0.000000  -0.000000
    34  H    0.000000  -0.000000  -0.000000   0.000000  -0.000000   0.000000
    35  H   -0.000000   0.000000   0.000000  -0.000000  -0.000000  -0.000000
    36  H   -0.000000   0.000000   0.000000  -0.000000  -0.000000  -0.000000
              19         20         21         22         23         24
     1  C   -0.000000  -0.000000   0.000000   0.000000  -0.000000   0.000000
     2  H   -0.000000  -0.000000   0.000000   0.000000  -0.000000   0.000000
     3  H   -0.000000  -0.000000   0.000000   0.000000  -0.000000   0.000000
     4  H    0.000000   0.000000  -0.000000  -0.000000   0.000000  -0.000000
     5  C    0.000000   0.000000  -0.000000  -0.000000   0.000000  -0.000000
     6  H   -0.000000   0.000000  -0.000000  -0.000000   0.000000  -0.000000
     7  H    0.000000   0.000000  -0.000000  -0.000000   0.000000  -0.000000
     8  C   -0.000006  -0.000002   0.000000   0.000000  -0.000000   0.000000
     9  H   -0.000000  -0.000000   0.000000  -0.000000  -0.000000   0.000000
    10  H   -0.000000  -0.000000   0.000000   0.000000  -0.000000  -0.000000
    11  C    0.000627   0.000084  -0.000005  -0.000000   0.000001  -0.000000
    12  H    0.000009   0.000000  -0.000000  -0.000000   0.000000   0.000000
    13  H    0.000063   0.000050  -0.000001   0.000000   0.000000   0.000000
    14  C   -0.026554  -0.003317   0.000888   0.000020  -0.000016  -0.000009
    15  H   -0.004262   0.000413   0.000024   0.000002  -0.000001  -0.000001
    16  H    0.000081   0.000006  -0.000020  -0.000000  -0.000001   0.000005
    17  C    0.577207  -0.030844  -0.027029  -0.004292   0.001158  -0.000140
    18  H   -0.031121   0.002371  -0.003138   0.000449   0.000110   0.000004
    19  C    4.854596   0.380671   0.381269  -0.022679  -0.024858  -0.022367
    20  H    0.380671   0.631786  -0.026043   0.001698  -0.000427  -0.002396
    21  C    0.381269  -0.026043   4.726550   0.379446   0.371876   0.365886
    22  H   -0.022679   0.001698   0.379446   0.639497  -0.022511  -0.022373
    23  H   -0.024858  -0.000427   0.371876  -0.022511   0.653479  -0.023583
    24  C   -0.022367  -0.002396   0.365886  -0.022373  -0.023583   4.737438
    25  H   -0.002304   0.000389  -0.022477   0.001885  -0.002231   0.378523
    26  H   -0.001514   0.000034  -0.023026  -0.002399   0.001992   0.378300
    27  C    0.000703   0.000010  -0.021482  -0.001994  -0.002541   0.369100
    28  H    0.000007   0.000001  -0.002199  -0.000001   0.000433  -0.022798
    29  H    0.000007  -0.000000  -0.002178   0.000381  -0.000004  -0.022793
    30  C   -0.000004  -0.000000   0.000687   0.000006   0.000011  -0.021611
    31  H   -0.000000  -0.000000   0.000006   0.000002  -0.000001  -0.002200
    32  H   -0.000000  -0.000000   0.000006  -0.000001   0.000002  -0.002193
    33  C    0.000000   0.000000  -0.000005  -0.000000  -0.000000   0.000716
    34  H   -0.000000  -0.000000   0.000000   0.000000   0.000000  -0.000015
    35  H    0.000000  -0.000000  -0.000000   0.000000  -0.000000   0.000008
    36  H    0.000000  -0.000000  -0.000000  -0.000000   0.000000   0.000008
              25         26         27         28         29         30
     1  C   -0.000000  -0.000000   0.000000   0.000000  -0.000000   0.000000
     2  H   -0.000000  -0.000000   0.000000   0.000000   0.000000   0.000000
     3  H   -0.000000  -0.000000   0.000000   0.000000  -0.000000   0.000000
     4  H    0.000000   0.000000   0.000000   0.000000   0.000000   0.000000
     5  C    0.000000   0.000000   0.000000  -0.000000   0.000000   0.000000
     6  H   -0.000000   0.000000   0.000000  -0.000000   0.000000  -0.000000
     7  H    0.000000   0.000000  -0.000000  -0.000000   0.000000   0.000000
     8  C   -0.000000  -0.000000  -0.000000   0.000000  -0.000000  -0.000000
     9  H    0.000000  -0.000000  -0.000000  -0.000000  -0.000000   0.000000
    10  H   -0.000000  -0.000000   0.000000   0.000000   0.000000  -0.000000
    11  C    0.000000   0.000000   0.000000  -0.000000   0.000000  -0.000000
    12  H   -0.000000   0.000000  -0.000000  -0.000000  -0.000000   0.000000
    13  H    0.000000   0.000000  -0.000000  -0.000000  -0.000000   0.000000
    14  C   -0.000000  -0.000008   0.000000   0.000000   0.000000  -0.000000
    15  H   -0.000001   0.000000   0.000000   0.000000  -0.000000  -0.000000
    16  H    0.000000  -0.000001  -0.000000  -0.000000  -0.000000   0.000000
    17  C    0.000012   0.000123  -0.000000  -0.000000   0.000001  -0.000000
    18  H   -0.000000   0.000005  -0.000000   0.000000  -0.000000   0.000000
    19  C   -0.002304  -0.001514   0.000703   0.000007   0.000007  -0.000004
    20  H    0.000389   0.000034   0.000010   0.000001  -0.000000  -0.000000
    21  C   -0.022477  -0.023026  -0.021482  -0.002199  -0.002178   0.000687
    22  H    0.001885  -0.002399  -0.001994  -0.000001   0.000381   0.000006
    23  H   -0.002231   0.001992  -0.002541   0.000433  -0.000004   0.000011
    24  C    0.378523   0.378300   0.369100  -0.022798  -0.022793  -0.021611
    25  H    0.646718  -0.023755  -0.022676  -0.002342   0.001932  -0.002163
    26  H   -0.023755   0.645971  -0.022481   0.001921  -0.002275  -0.002169
    27  C   -0.022676  -0.022481   4.738038   0.378455   0.378372   0.368040
    28  H   -0.002342   0.001921   0.378455   0.648724  -0.023822  -0.022685
    29  H    0.001932  -0.002275   0.378372  -0.023822   0.648756  -0.022680
    30  C   -0.002163  -0.002169   0.368040  -0.022685  -0.022680   4.725611
    31  H    0.000002   0.000385  -0.023047   0.001943  -0.002345   0.379352
    32  H    0.000393   0.000003  -0.023056  -0.002345   0.001945   0.379311
    33  C    0.000007   0.000007  -0.022841  -0.002208  -0.002219   0.368789
    34  H   -0.000000  -0.000000   0.001240   0.000009   0.000010  -0.019417
    35  H    0.000002  -0.000001  -0.002133   0.000394  -0.000006  -0.021007
    36  H   -0.000001   0.000002  -0.002132  -0.000006   0.000393  -0.021010
              31         32         33         34         35         36
     1  C    0.000000   0.000000   0.000000   0.000000   0.000000   0.000000
     2  H    0.000000   0.000000   0.000000   0.000000   0.000000   0.000000
     3  H    0.000000  -0.000000   0.000000   0.000000   0.000000   0.000000
     4  H    0.000000   0.000000   0.000000   0.000000   0.000000   0.000000
     5  C   -0.000000   0.000000   0.000000   0.000000   0.000000   0.000000
     6  H   -0.000000  -0.000000   0.000000   0.000000   0.000000   0.000000
     7  H   -0.000000   0.000000   0.000000   0.000000   0.000000   0.000000
     8  C    0.000000  -0.000000   0.000000   0.000000   0.000000   0.000000
     9  H    0.000000   0.000000  -0.000000   0.000000   0.000000  -0.000000
    10  H    0.000000  -0.000000   0.000000  -0.000000   0.000000   0.000000
    11  C   -0.000000  -0.000000   0.000000  -0.000000   0.000000   0.000000
    12  H   -0.000000   0.000000  -0.000000   0.000000  -0.000000  -0.000000
    13  H    0.000000   0.000000  -0.000000   0.000000  -0.000000  -0.000000
    14  C    0.000000  -0.000000   0.000000  -0.000000   0.000000   0.000000
    15  H    0.000000  -0.000000   0.000000  -0.000000   0.000000   0.000000
    16  H    0.000000   0.000000  -0.000000   0.000000  -0.000000  -0.000000
    17  C   -0.000000   0.000000   0.000000  -0.000000  -0.000000  -0.000000
    18  H   -0.000000  -0.000000  -0.000000   0.000000  -0.000000  -0.000000
    19  C   -0.000000  -0.000000   0.000000  -0.000000   0.000000   0.000000
    20  H   -0.000000  -0.000000   0.000000  -0.000000  -0.000000  -0.000000
    21  C    0.000006   0.000006  -0.000005   0.000000  -0.000000  -0.000000
    22  H    0.000002  -0.000001  -0.000000   0.000000   0.000000  -0.000000
    23  H   -0.000001   0.000002  -0.000000   0.000000  -0.000000   0.000000
    24  C   -0.002200  -0.002193   0.000716  -0.000015   0.000008   0.000008
    25  H    0.000002   0.000393   0.000007  -0.000000   0.000002  -0.000001
    26  H    0.000385   0.000003   0.000007  -0.000000  -0.000001   0.000002
    27  C   -0.023047  -0.023056  -0.022841   0.001240  -0.002133  -0.002132
    28  H    0.001943  -0.002345  -0.002208   0.000009   0.000394  -0.000006
    29  H   -0.002345   0.001945  -0.002219   0.000010  -0.000006   0.000393
    30  C    0.379352   0.379311   0.368789  -0.019417  -0.021007  -0.021010
    31  H    0.645882  -0.023859  -0.022161  -0.002126   0.001879  -0.002226
    32  H   -0.023859   0.646162  -0.022175  -0.002129  -0.002222   0.001879
    33  C   -0.022161  -0.022175   4.726066   0.381628   0.380232   0.380237
    34  H   -0.002126  -0.002129   0.381628   0.628826  -0.021531  -0.021529
    35  H    0.001879  -0.002222   0.380232  -0.021531   0.633533  -0.021856
    36  H   -0.002226   0.001879   0.380237  -0.021529  -0.021856   0.633484
 Mulliken charges:
               1
     1  C   -0.166123
     2  H    0.052243
     3  H    0.052320
     4  H    0.054461
     5  C   -0.089264
     6  H    0.047884
     7  H    0.047641
     8  C   -0.090669
     9  H    0.044766
    10  H    0.044211
    11  C   -0.089550
    12  H    0.044986
    13  H    0.046512
    14  C   -0.098529
    15  H    0.053071
    16  H    0.057818
    17  C   -0.060107
    18  H    0.046351
    19  C   -0.059570
    20  H    0.045516
    21  C   -0.099037
    22  H    0.052866
    23  H    0.047114
    24  C   -0.087509
    25  H    0.048086
    26  H    0.048884
    27  C   -0.089573
    28  H    0.046517
    29  H    0.046525
    30  C   -0.089061
    31  H    0.048514
    32  H    0.048278
    33  C   -0.166072
    34  H    0.055035
    35  H    0.052710
    36  H    0.052756
 Sum of Mulliken charges =  -0.00000
 Mulliken charges with hydrogens summed into heavy atoms:
               1
     1  C   -0.007099
     5  C    0.006261
     8  C   -0.001692
    11  C    0.001948
    14  C    0.012359
    17  C   -0.013756
    19  C   -0.014054
    21  C    0.000942
    24  C    0.009461
    27  C    0.003469
    30  C    0.007732
    33  C   -0.005571
 Electronic spatial extent (au):  <R**2>=           6766.3104
 Charge=              0.0000 electrons
 Dipole moment (field-independent basis, Debye):
    X=             -0.1378    Y=             -0.1060    Z=             -0.0283  Tot=              0.1762
 Quadrupole moment (field-independent basis, Debye-Ang):
   XX=            -76.3601   YY=            -76.0472   ZZ=            -74.6294
   XY=              0.0616   XZ=             -0.5694   YZ=             -0.2054
 Traceless Quadrupole moment (field-independent basis, Debye-Ang):
   XX=             -0.6812   YY=             -0.3683   ZZ=              1.0495
   XY=              0.0616   XZ=             -0.5694   YZ=             -0.2054
 Octapole moment (field-independent basis, Debye-Ang**2):
  XXX=             -3.8600  YYY=             -0.5815  ZZZ=             -0.0153  XYY=             -0.9573
  XXY=              3.4154  XXZ=              0.6906  XZZ=              0.1671  YZZ=              0.1307
  YYZ=             -0.5835  XYZ=             -0.9548
 Hexadecapole moment (field-independent basis, Debye-Ang**3):
 XXXX=          -8504.4101 YYYY=           -382.2748 ZZZZ=           -168.2493 XXXY=             23.3293
 XXXZ=            -13.5683 YYYX=              3.0428 YYYZ=             -2.4156 ZZZX=             -0.1325
 ZZZY=              0.3264 XXYY=          -1459.4129 XXZZ=          -1410.9202 YYZZ=            -89.2048
 XXYZ=              1.6530 YYXZ=             -2.3415 ZZXY=             -3.1486
 N-N= 6.537787873393D+02 E-N=-2.383053982741D+03  KE= 4.588389400385D+02
 1\1\GINC-CN0003\SP\RHF\STO-3G\C12H24\GRAHA682\04-Dec-2017\0\\# hf/sto-
 3g geom=connectivity\\Title Card Required\\0,1\C,0,-6.854443,-0.134877
 ,-0.168414\H,0,-7.040212,-0.818328,0.677653\H,0,-6.884443,-0.743683,-1
 .088126\H,0,-7.697052,0.572652,-0.212848\C,0,-5.520363,0.56989,-0.0210
 4\H,0,-5.368713,1.273324,-0.861988\H,0,-5.523451,1.199843,0.889097\C,0
 ,-4.344023,-0.388597,0.042497\H,0,-4.335099,-1.020835,-0.868101\H,0,-4
 .48926,-1.094591,0.884904\C,0,-3.001393,0.302765,0.189464\H,0,-3.00708
 7,0.930311,1.102873\H,0,-2.850369,1.009328,-0.649702\C,0,-1.824677,-0.
 663624,0.246928\H,0,-1.800656,-1.277687,-0.673205\H,0,-1.994641,-1.373
 719,1.081199\C,0,-0.511885,0.023005,0.428088\H,0,-0.405457,0.634962,1.
 338635\C,0,0.511885,-0.023005,-0.428088\H,0,0.29887846,0.08085366,-1.5
 0454316\C,0,1.94164417,-0.23960176,-0.05852644\H,0,2.03927779,-0.28695
 581,1.04261858\H,0,2.5479509,0.63125003,-0.37968077\C,0,2.53596022,-1.
 49663426,-0.68184663\H,0,2.41507236,-1.45396992,-1.78263193\H,0,1.9470
 5652,-2.37634234,-0.3569694\C,0,3.99981936,-1.70532593,-0.34155229\H,0
 ,4.58392683,-0.82161605,-0.66873145\H,0,4.12043127,-1.7416759,0.759867
 12\C,0,4.59630386,-2.95984764,-0.95546725\H,0,4.00794413,-3.83800794,-
 0.62732405\H,0,4.47150128,-2.91943713,-2.05455367\C,0,6.05855042,-3.15
 533154,-0.60645991\H,0,6.47664837,-4.06819835,-1.05859915\H,0,6.668865
 81,-2.30429918,-0.95388249\H,0,6.20141045,-3.23108794,0.48499181\\Vers
 ion=ES64L-G09RevE.01\State=1-A\HF=-462.8188884\RMSD=5.303e-09\Dipole=0
 .0422179,-0.0547701,-0.0047723\Quadrupole=-0.5046861,-0.3175656,0.8222
 517,0.1266034,-0.3681349,-0.0859187\PG=C01 [X(C12H24)]\\@


  THE LARGE PRINT GIVETH,
  AND THE SMALL PRINT TAKETH AWAY.

                     -- TOM WAITS
 Job cpu time:       0 days  0 hours  0 minutes 55.3 seconds.
 File lengths (MBytes):  RWF=      5 Int=      0 D2E=      0 Chk=      2 Scr=      1
 Normal termination of Gaussian 09 at Mon Dec  4 11:08:00 2017.
54.62user 0.74system 0:02.89elapsed 1915%CPU (0avgtext+0avgdata 428384maxresident)k
189872inputs+15800outputs (181major+24067minor)pagefaults 0swaps
