 Entering Gaussian System, Link 0=g09
 Initial command:
 /panfs/roc/msisoft/gaussian/g09.e01_mesabi/g09/l1.exe "/scratch/graha682/4575985.mesabim3.msi.umn.edu/Gau-27440.inp" -scrdir="/scratch/graha682/4575985.mesabim3.msi.umn.edu/"
 Entering Link 1 = /panfs/roc/msisoft/gaussian/g09.e01_mesabi/g09/l1.exe PID=     27441.
  
 Copyright (c) 1988,1990,1992,1993,1995,1998,2003,2009,2015,
            Gaussian, Inc.  All Rights Reserved.
  
 This is part of the Gaussian(R) 09 program.  It is based on
 the Gaussian(R) 03 system (copyright 2003, Gaussian, Inc.),
 the Gaussian(R) 98 system (copyright 1998, Gaussian, Inc.),
 the Gaussian(R) 94 system (copyright 1995, Gaussian, Inc.),
 the Gaussian 92(TM) system (copyright 1992, Gaussian, Inc.),
 the Gaussian 90(TM) system (copyright 1990, Gaussian, Inc.),
 the Gaussian 88(TM) system (copyright 1988, Gaussian, Inc.),
 the Gaussian 86(TM) system (copyright 1986, Carnegie Mellon
 University), and the Gaussian 82(TM) system (copyright 1983,
 Carnegie Mellon University). Gaussian is a federally registered
 trademark of Gaussian, Inc.
  
 This software contains proprietary and confidential information,
 including trade secrets, belonging to Gaussian, Inc.
  
 This software is provided under written license and may be
 used, copied, transmitted, or stored only in accord with that
 written license.
  
 The following legend is applicable only to US Government
 contracts under FAR:
  
                    RESTRICTED RIGHTS LEGEND
  
 Use, reproduction and disclosure by the US Government is
 subject to restrictions as set forth in subparagraphs (a)
 and (c) of the Commercial Computer Software - Restricted
 Rights clause in FAR 52.227-19.
  
 Gaussian, Inc.
 340 Quinnipiac St., Bldg. 40, Wallingford CT 06492
  
  
 ---------------------------------------------------------------
 Warning -- This program may not be used in any manner that
 competes with the business of Gaussian, Inc. or will provide
 assistance to any competitor of Gaussian, Inc.  The licensee
 of this program is prohibited from giving any competitor of
 Gaussian, Inc. access to this program.  By using this program,
 the user acknowledges that Gaussian, Inc. is engaged in the
 business of creating and licensing software in the field of
 computational chemistry and represents and warrants to the
 licensee that it is not a competitor of Gaussian, Inc. and that
 it will not use this program in any manner prohibited above.
 ---------------------------------------------------------------
  

 Cite this work as:
 Gaussian 09, Revision E.01,
 M. J. Frisch, G. W. Trucks, H. B. Schlegel, G. E. Scuseria, 
 M. A. Robb, J. R. Cheeseman, G. Scalmani, V. Barone, B. Mennucci, 
 G. A. Petersson, H. Nakatsuji, M. Caricato, X. Li, H. P. Hratchian, 
 A. F. Izmaylov, J. Bloino, G. Zheng, J. L. Sonnenberg, M. Hada, 
 M. Ehara, K. Toyota, R. Fukuda, J. Hasegawa, M. Ishida, T. Nakajima, 
 Y. Honda, O. Kitao, H. Nakai, T. Vreven, J. A. Montgomery, Jr., 
 J. E. Peralta, F. Ogliaro, M. Bearpark, J. J. Heyd, E. Brothers, 
 K. N. Kudin, V. N. Staroverov, T. Keith, R. Kobayashi, J. Normand, 
 K. Raghavachari, A. Rendell, J. C. Burant, S. S. Iyengar, J. Tomasi, 
 M. Cossi, N. Rega, J. M. Millam, M. Klene, J. E. Knox, J. B. Cross, 
 V. Bakken, C. Adamo, J. Jaramillo, R. Gomperts, R. E. Stratmann, 
 O. Yazyev, A. J. Austin, R. Cammi, C. Pomelli, J. W. Ochterski, 
 R. L. Martin, K. Morokuma, V. G. Zakrzewski, G. A. Voth, 
 P. Salvador, J. J. Dannenberg, S. Dapprich, A. D. Daniels, 
 O. Farkas, J. B. Foresman, J. V. Ortiz, J. Cioslowski, 
 and D. J. Fox, Gaussian, Inc., Wallingford CT, 2013.
 
 ******************************************
 Gaussian 09:  ES64L-G09RevE.01 30-Nov-2015
                 4-Dec-2017 
 ******************************************
 %LindaWorkers=in-cn0069
 %NProcShared=24
 Will use up to   24 processors via shared memory.
 %Mem=59800mb
 %chk=20171201_def2svp_m06_165c12h24.chk
 SetLPE:  input flags=" -workerwait 900 -opt "Tsnet.Node.lindarsharg: ssh " "
 SetLPE:    new flags=" -workerwait 900 -opt "Tsnet.Node.lindarsharg: ssh "  -nodelist 'in-cn0069'"
 Will use up to    1 processors via Linda.
 -----------------------------
 # hf/sto-3g geom=connectivity
 -----------------------------
 1/38=1,57=2/1;
 2/12=2,17=6,18=5,40=1/2;
 3/6=3,11=9,16=1,25=1,30=1/1,2,3;
 4//1;
 5/5=2,38=5/2;
 6/7=2,8=2,9=2,10=2,28=1/1;
 99/5=1,9=1/99;
 -------------------
 Title Card Required
 -------------------
 Symbolic Z-matrix:
 Charge =  0 Multiplicity = 1
 C                    -6.85444  -0.13488  -0.16841 
 H                    -7.04021  -0.81833   0.67765 
 H                    -6.88444  -0.74368  -1.08813 
 H                    -7.69705   0.57265  -0.21285 
 C                    -5.52036   0.56989  -0.02104 
 H                    -5.36871   1.27332  -0.86199 
 H                    -5.52345   1.19984   0.8891 
 C                    -4.34402  -0.3886    0.0425 
 H                    -4.3351   -1.02083  -0.8681 
 H                    -4.48926  -1.09459   0.8849 
 C                    -3.00139   0.30277   0.18946 
 H                    -3.00709   0.93031   1.10287 
 H                    -2.85037   1.00933  -0.6497 
 C                    -1.82468  -0.66362   0.24693 
 H                    -1.80066  -1.27769  -0.67321 
 H                    -1.99464  -1.37372   1.0812 
 C                    -0.51189   0.02301   0.42809 
 H                    -0.40546   0.63496   1.33864 
 C                     0.51189  -0.02301  -0.42809 
 H                     1.30994   0.73099  -0.33051 
 C                     0.66232  -0.99873  -1.54748 
 H                    -0.16956  -1.72782  -1.52116 
 H                     1.5891   -1.59069  -1.40681 
 C                     0.71914  -0.3328   -2.91685 
 H                     1.53946   0.41223  -2.92994 
 H                    -0.20842   0.25087  -3.07556 
 C                     0.90912  -1.31429  -4.05826 
 H                     1.83868  -1.89565  -3.89363 
 H                     0.09147  -2.0627   -4.0405 
 C                     0.96084  -0.65684  -5.42632 
 H                     0.03178  -0.07632  -5.58396 
 H                     1.7772    0.09058  -5.43801 
 C                     1.15033  -1.64944  -6.55637 
 H                     1.18604  -1.15814  -7.54121 
 H                     2.08858  -2.21734  -6.43542 
 H                     0.3285   -2.38517  -6.58299 
 
                          Input orientation:                          
 ---------------------------------------------------------------------
 Center     Atomic      Atomic             Coordinates (Angstroms)
 Number     Number       Type             X           Y           Z
 ---------------------------------------------------------------------
      1          6           0       -6.854443   -0.134877   -0.168414
      2          1           0       -7.040212   -0.818328    0.677653
      3          1           0       -6.884443   -0.743683   -1.088126
      4          1           0       -7.697052    0.572652   -0.212848
      5          6           0       -5.520363    0.569890   -0.021040
      6          1           0       -5.368713    1.273324   -0.861988
      7          1           0       -5.523451    1.199843    0.889097
      8          6           0       -4.344023   -0.388597    0.042497
      9          1           0       -4.335099   -1.020835   -0.868101
     10          1           0       -4.489260   -1.094591    0.884904
     11          6           0       -3.001393    0.302765    0.189464
     12          1           0       -3.007087    0.930311    1.102873
     13          1           0       -2.850369    1.009328   -0.649702
     14          6           0       -1.824677   -0.663624    0.246928
     15          1           0       -1.800656   -1.277687   -0.673205
     16          1           0       -1.994641   -1.373719    1.081199
     17          6           0       -0.511885    0.023005    0.428088
     18          1           0       -0.405457    0.634962    1.338635
     19          6           0        0.511885   -0.023005   -0.428088
     20          1           0        1.309936    0.730989   -0.330512
     21          6           0        0.662324   -0.998731   -1.547476
     22          1           0       -0.169561   -1.727820   -1.521164
     23          1           0        1.589105   -1.590695   -1.406813
     24          6           0        0.719139   -0.332803   -2.916848
     25          1           0        1.539456    0.412229   -2.929936
     26          1           0       -0.208423    0.250873   -3.075562
     27          6           0        0.909119   -1.314290   -4.058262
     28          1           0        1.838680   -1.895654   -3.893634
     29          1           0        0.091467   -2.062704   -4.040504
     30          6           0        0.960841   -0.656836   -5.426322
     31          1           0        0.031779   -0.076315   -5.583961
     32          1           0        1.777199    0.090576   -5.438013
     33          6           0        1.150332   -1.649441   -6.556373
     34          1           0        1.186041   -1.158137   -7.541211
     35          1           0        2.088575   -2.217345   -6.435425
     36          1           0        0.328498   -2.385168   -6.582986
 ---------------------------------------------------------------------
                    Distance matrix (angstroms):
                    1          2          3          4          5
     1  C    0.000000
     2  H    1.103379   0.000000
     3  H    1.103365   1.774207   0.000000
     4  H    1.101164   1.777430   1.777409   0.000000
     5  C    1.515977   2.173767   2.173674   2.185125   0.000000
     6  H    2.161358   3.088594   2.533159   2.516642   1.106802
     7  H    2.161330   2.533434   3.088528   2.516385   1.106887
     8  C    2.532008   2.803128   2.803235   3.497428   1.518720
     9  H    2.760720   3.122179   2.573787   3.777735   2.157028
    10  H    2.761272   2.574224   3.122961   3.778186   2.157407
    11  C    3.894304   4.219862   4.219641   4.720583   2.541826
    12  H    4.189623   4.416407   4.757796   4.884139   2.776624
    13  H    4.192070   4.759935   4.420296   4.885884   2.777983
    14  C    5.074508   5.235577   5.233547   6.018684   3.905312
    15  H    5.205919   5.430357   5.128568   6.197029   4.204174
    16  H    5.168553   5.092062   5.386379   6.162825   4.174118
    17  C    6.372502   6.587046   6.595166   7.234607   5.058226
    18  H    6.667328   6.824143   7.054579   7.455088   5.292940
    19  C    7.371752   7.673941   7.460610   8.233334   6.074967
    20  H    8.211765   8.552295   8.360412   9.009148   6.839204
    21  C    7.690893   8.019526   7.565034   8.609857   6.558673
    22  H    7.003931   7.271026   6.800418   7.979159   6.013395
    23  H    8.657167   8.911041   8.521737   9.609284   7.558639
    24  C    8.059294   8.565262   7.831188   8.886154   6.937719
    25  H    8.853410   9.388273   8.700027   9.629194   7.637249
    26  H    7.264289   7.867855   7.036212   8.023605   6.135844
    27  C    8.763266   9.266431   8.359839   9.613217   7.822246
    28  H    9.620187  10.044502   9.235302  10.515271   8.673604
    29  H    8.182619   8.641199   7.688931   9.069568   7.387779
    30  C    9.433807  10.064862   8.965265  10.180917   8.528068
    31  H    8.760801   9.474780   8.275992   9.434238   7.886061
    32  H   10.115569  10.769132   9.728388  10.830336   9.100975
    33  C   10.352601  10.959329   9.761134  11.110995   9.598655
    34  H   10.956942  11.633419  10.341508  11.645166  10.223253
    35  H   11.117089  11.657096  10.548950  11.927407  10.334842
    36  H    9.889650  10.462779   9.214905  10.664746   9.273655
                    6          7          8          9         10
     6  H    0.000000
     7  H    1.759444   0.000000
     8  C    2.151758   2.151958   0.000000
     9  H    2.516259   3.071048   1.108600   0.000000
    10  H    3.071171   2.516743   1.108680   1.761315   0.000000
    11  C    2.766178   2.766769   1.517312   2.156185   2.156383
    12  H    3.091216   2.539771   2.156690   3.074951   2.518844
    13  H    2.541027   3.090237   2.159707   2.524615   3.076923
    14  C    4.188276   4.191160   2.542545   2.770038   2.773580
    15  H    4.390254   4.736892   2.787728   2.554870   3.112847
    16  H    4.708203   4.371799   2.751175   3.066275   2.517850
    17  C    5.178453   5.168488   3.873419   4.169733   4.156587
    18  H    5.466640   5.168659   4.270825   4.801399   4.458102
    19  C    6.037398   6.297270   4.892336   4.968152   5.280501
    20  H    6.721677   6.957187   5.775800   5.935007   6.200053
    21  C    6.481167   7.002458   5.288079   5.043438   5.697760
    22  H    6.039251   6.560846   4.654534   4.275280   4.984971
    23  H    7.543916   7.977892   6.224753   5.975880   6.514953
    24  C    6.622993   7.470218   5.864849   5.496915   6.493155
    25  H    7.262278   8.067837   6.640181   6.388680   7.291702
    26  H    5.707355   6.698402   5.218659   4.849699   5.985075
    27  C    7.504871   8.495598   6.728197   6.145329   7.322954
    28  H    8.436813   9.309006   7.482658   6.930708   7.969878
    29  H    7.144621   8.153066   6.256764   5.544738   6.795583
    30  C    8.038776   9.240012   7.623747   6.996918   8.350258
    31  H    7.299580   8.624943   7.134578   6.496236   7.957569
    32  H    8.567552   9.724314   8.230125   7.712296   8.980669
    33  C    9.136001  10.396770   8.678868   7.927265   9.353366
    34  H    9.668962  11.029390   9.417347   8.662115  10.159355
    35  H    9.942792  11.102645   9.310537   8.584307   9.905337
    36  H    8.864118  10.145424   8.349597   7.501363   8.980298
                   11         12         13         14         15
    11  C    0.000000
    12  H    1.108225   0.000000
    13  H    1.107357   1.761341   0.000000
    14  C    1.523768   2.161334   2.157489   0.000000
    15  H    2.164208   3.079803   2.516523   1.106479   0.000000
    16  H    2.149265   2.516758   3.067116   1.108662   1.767706
    17  C    2.516517   2.739447   2.757349   1.492549   2.136721
    18  H    2.858292   2.628934   3.173520   2.211862   3.106816
    19  C    3.581985   3.954215   3.524142   2.515067   2.642377
    20  H    4.363635   4.553132   4.181805   3.479106   3.718602
    21  C    4.258365   4.920378   4.144551   3.085021   2.628390
    22  H    3.881854   4.690712   3.929142   2.645386   1.892650
    23  H    5.215933   5.811968   5.200218   3.904898   3.482332
    24  C    4.888301   5.624800   4.436514   4.073073   3.503728
    25  H    5.510167   6.099427   4.982625   4.750506   4.370926
    26  H    4.296949   5.074788   3.666051   3.806248   3.262364
    27  C    5.995844   6.856546   5.581329   5.141174   4.336223
    28  H    6.703063   7.512165   6.399156   5.664128   4.898757
    29  H    5.749248   6.709210   5.439606   4.900113   3.941457
    30  C    6.939538   7.803453   6.333840   6.320200   5.532038
    31  H    6.532708   7.413620   5.816555   6.147408   5.377419
    32  H    7.385693   8.147253   6.722084   6.772066   6.113639
    33  C    8.158078   9.088636   7.613371   7.490488   6.592283
    34  H    8.912473   9.831792   8.275470   8.364453   7.490271
    35  H    8.726275   9.628055   8.263121   7.898192   7.015145
    36  H    8.011194   9.010602   7.538677   7.365297   6.378504
                   16         17         18         19         20
    16  H    0.000000
    17  C    2.139149   0.000000
    18  H    2.574214   1.102231   0.000000
    19  C    3.222584   1.335387   2.096604   0.000000
    20  H    4.164487   2.096604   2.395380   1.102231   0.000000
    21  C    3.756329   2.515067   3.484070   1.492549   2.211862
    22  H    3.198218   2.642377   3.717100   2.136721   3.106816
    23  H    4.368125   3.222584   4.058240   2.139149   2.574214
    24  C    4.942923   3.581985   4.506709   2.516517   2.858292
    25  H    5.636369   3.954215   4.696061   2.739447   2.628934
    26  H    4.807134   3.524142   4.435254   2.757349   3.173520
    27  C    5.903339   4.892336   5.886781   3.873419   4.270825
    28  H    6.302042   5.280501   6.230314   4.156587   4.458102
    29  H    5.573005   4.968152   6.038168   4.169733   4.801399
    30  C    7.183080   6.074967   7.021407   5.058226   5.292940
    31  H    7.086183   6.037398   6.972763   5.178453   5.466640
    32  H    7.672748   6.297270   7.140259   5.168488   5.168659
    33  C    8.264344   7.371752   8.364815   6.372502   6.667329
    34  H    9.192887   8.233334   9.197812   7.234607   7.455088
    35  H    8.595580   7.673941   8.648229   6.587046   6.824142
    36  H    8.072158   7.460610   8.509521   6.595166   7.054579
                   21         22         23         24         25
    21  C    0.000000
    22  H    1.106479   0.000000
    23  H    1.108662   1.767706   0.000000
    24  C    1.523768   2.164208   2.149265   0.000000
    25  H    2.161334   3.079803   2.516758   1.108225   0.000000
    26  H    2.157489   2.516523   3.067116   1.107357   1.761341
    27  C    2.542545   2.787728   2.751175   1.517312   2.156690
    28  H    2.773580   3.112847   2.517850   2.156383   2.518844
    29  H    2.770038   2.554870   3.066275   2.156185   3.074951
    30  C    3.905312   4.204174   4.174118   2.541826   2.776624
    31  H    4.188276   4.390254   4.708203   2.766178   3.091216
    32  H    4.191160   4.736892   4.371799   2.766769   2.539771
    33  C    5.074508   5.205919   5.168553   3.894304   4.189623
    34  H    6.018684   6.197029   6.162825   4.720583   4.884139
    35  H    5.235577   5.430357   5.092062   4.219862   4.416406
    36  H    5.233547   5.128568   5.386379   4.219641   4.757796
                   26         27         28         29         30
    26  H    0.000000
    27  C    2.159707   0.000000
    28  H    3.076923   1.108680   0.000000
    29  H    2.524615   1.108600   1.761315   0.000000
    30  C    2.777983   1.518720   2.157407   2.157028   0.000000
    31  H    2.541027   2.151758   3.071171   2.516259   1.106802
    32  H    3.090237   2.151958   2.516743   3.071048   1.106887
    33  C    4.192070   2.532008   2.761272   2.760721   1.515977
    34  H    4.885884   3.497428   3.778186   3.777735   2.185125
    35  H    4.759935   2.803128   2.574224   3.122179   2.173766
    36  H    4.420296   2.803235   3.122961   2.573787   2.173674
                   31         32         33         34         35
    31  H    0.000000
    32  H    1.759444   0.000000
    33  C    2.161358   2.161330   0.000000
    34  H    2.516642   2.516385   1.101164   0.000000
    35  H    3.088593   2.533433   1.103378   1.777429   0.000000
    36  H    2.533159   3.088528   1.103365   1.777409   1.774207
                   36
    36  H    0.000000
 Stoichiometry    C12H24
 Framework group  C1[X(C12H24)]
 Deg. of freedom   102
 Full point group                 C1      NOp   1
 Largest Abelian subgroup         C1      NOp   1
 Largest concise Abelian subgroup C1      NOp   1
                         Standard orientation:                         
 ---------------------------------------------------------------------
 Center     Atomic      Atomic             Coordinates (Angstroms)
 Number     Number       Type             X           Y           Z
 ---------------------------------------------------------------------
      1          6           0        5.172005   -2.153919   -0.172633
      2          1           0        5.742125   -1.701978   -1.002185
      3          1           0        4.538940   -2.945213   -0.609093
      4          1           0        5.895820   -2.642297    0.498292
      5          6           0        4.333482   -1.115340    0.545989
      6          1           0        3.795721   -1.582747    1.392957
      7          1           0        4.989176   -0.349964    1.003660
      8          6           0        3.328085   -0.429070   -0.362152
      9          1           0        2.667273   -1.191356   -0.821761
     10          1           0        3.861433    0.043231   -1.211648
     11          6           0        2.480800    0.613105    0.343692
     12          1           0        3.140190    1.379059    0.798314
     13          1           0        1.945072    0.147018    1.193397
     14          6           0        1.470227    1.294076   -0.571125
     15          1           0        0.794440    0.536128   -1.010583
     16          1           0        2.017045    1.744006   -1.424169
     17          6           0        0.666482    2.342940    0.122833
     18          1           0        1.235307    3.176056    0.566986
     19          6           0       -0.660794    2.332259    0.269403
     20          1           0       -1.109255    2.998342    1.024472
     21          6           0       -1.609071    1.461191   -0.485391
     22          1           0       -1.054217    0.871216   -1.239288
     23          1           0       -2.321836    2.089624   -1.056503
     24          6           0       -2.406193    0.525251    0.414878
     25          1           0       -2.941655    1.119806    1.181654
     26          1           0       -1.705184   -0.118421    0.981015
     27          6           0       -3.399463   -0.338235   -0.340134
     28          1           0       -4.098024    0.311489   -0.904972
     29          1           0       -2.863646   -0.927911   -1.110963
     30          6           0       -4.193045   -1.277360    0.551371
     31          1           0       -3.490662   -1.921518    1.114157
     32          1           0       -4.724247   -0.683979    1.320086
     33          6           0       -5.180482   -2.133723   -0.216611
     34          1           0       -5.748024   -2.808709    0.442822
     35          1           0       -5.910882   -1.510376   -0.760118
     36          1           0       -4.667110   -2.758551   -0.967246
 ---------------------------------------------------------------------
 Rotational constants (GHZ):      1.1054634      0.2591530      0.2185669
 Standard basis: STO-3G (5D, 7F)
 There are    84 symmetry adapted cartesian basis functions of A   symmetry.
 There are    84 symmetry adapted basis functions of A   symmetry.
    84 basis functions,   252 primitive gaussians,    84 cartesian basis functions
    48 alpha electrons       48 beta electrons
       nuclear repulsion energy       675.2842873277 Hartrees.
 NAtoms=   36 NActive=   36 NUniq=   36 SFac= 1.00D+00 NAtFMM=   60 NAOKFM=F Big=F
 Integral buffers will be    131072 words long.
 Raffenetti 1 integral format.
 Two-electron integral symmetry is turned on.
 One-electron integrals computed using PRISM.
 NBasis=    84 RedAO= T EigKep=  1.85D-01  NBF=    84
 NBsUse=    84 1.00D-06 EigRej= -1.00D+00 NBFU=    84
 ExpMin= 1.69D-01 ExpMax= 7.16D+01 ExpMxC= 7.16D+01 IAcc=1 IRadAn=         1 AccDes= 0.00D+00
 Harris functional with IExCor=  205 and IRadAn=       1 diagonalized for initial guess.
 HarFok:  IExCor=  205 AccDes= 0.00D+00 IRadAn=         1 IDoV= 1 UseB2=F ITyADJ=14
 ICtDFT=  3500011 ScaDFX=  1.000000  1.000000  1.000000  1.000000
 FoFCou: FMM=F IPFlag=           0 FMFlag=      100000 FMFlg1=           0
         NFxFlg=           0 DoJE=T BraDBF=F KetDBF=T FulRan=T
         wScrn=  0.000000 ICntrl=     500 IOpCl=  0 I1Cent=   200000004 NGrid=           0
         NMat0=    1 NMatS0=      1 NMatT0=    0 NMatD0=    1 NMtDS0=    0 NMtDT0=    0
 Petite list used in FoFCou.
 Keep R1 ints in memory in canonical form, NReq=7314609.
 Requested convergence on RMS density matrix=1.00D-08 within 128 cycles.
 Requested convergence on MAX density matrix=1.00D-06.
 Requested convergence on             energy=1.00D-06.
 No special actions if energy rises.
 SCF Done:  E(RHF) =  -462.864240242     A.U. after   10 cycles
            NFock= 10  Conv=0.51D-08     -V/T= 2.0089

 **********************************************************************

            Population analysis using the SCF density.

 **********************************************************************

 Orbital symmetries:
       Occupied  (A) (A) (A) (A) (A) (A) (A) (A) (A) (A) (A) (A)
                 (A) (A) (A) (A) (A) (A) (A) (A) (A) (A) (A) (A)
                 (A) (A) (A) (A) (A) (A) (A) (A) (A) (A) (A) (A)
                 (A) (A) (A) (A) (A) (A) (A) (A) (A) (A) (A) (A)
       Virtual   (A) (A) (A) (A) (A) (A) (A) (A) (A) (A) (A) (A)
                 (A) (A) (A) (A) (A) (A) (A) (A) (A) (A) (A) (A)
                 (A) (A) (A) (A) (A) (A) (A) (A) (A) (A) (A) (A)
 The electronic state is 1-A.
 Alpha  occ. eigenvalues --  -11.04083 -11.04069 -11.04066 -11.04009 -11.03946
 Alpha  occ. eigenvalues --  -11.03791 -11.03773 -11.03686 -11.03396 -11.03358
 Alpha  occ. eigenvalues --  -11.00963 -11.00886  -1.05955  -1.04499  -1.01903
 Alpha  occ. eigenvalues --   -0.98404  -0.94468  -0.89198  -0.85285  -0.79029
 Alpha  occ. eigenvalues --   -0.77484  -0.75153  -0.74946  -0.67168  -0.63108
 Alpha  occ. eigenvalues --   -0.61356  -0.59446  -0.56680  -0.55878  -0.54834
 Alpha  occ. eigenvalues --   -0.54550  -0.52637  -0.52226  -0.51169  -0.48808
 Alpha  occ. eigenvalues --   -0.47808  -0.47265  -0.46793  -0.44845  -0.44191
 Alpha  occ. eigenvalues --   -0.43188  -0.42694  -0.42044  -0.41870  -0.41319
 Alpha  occ. eigenvalues --   -0.41000  -0.39592  -0.27825
 Alpha virt. eigenvalues --    0.31506   0.55329   0.57806   0.58153   0.58906
 Alpha virt. eigenvalues --    0.61045   0.63915   0.65298   0.66057   0.66777
 Alpha virt. eigenvalues --    0.67491   0.67793   0.68774   0.69600   0.70237
 Alpha virt. eigenvalues --    0.70592   0.72292   0.72921   0.73667   0.74453
 Alpha virt. eigenvalues --    0.75071   0.76187   0.76453   0.76717   0.76951
 Alpha virt. eigenvalues --    0.77628   0.78548   0.78617   0.80421   0.80667
 Alpha virt. eigenvalues --    0.80859   0.81824   0.82346   0.82966   0.96123
 Alpha virt. eigenvalues --    1.06864
          Condensed to atoms (all electrons):
               1          2          3          4          5          6
     1  C    4.726187   0.380230   0.380227   0.381613   0.368762  -0.022178
     2  H    0.380230   0.633676  -0.021865  -0.021538  -0.021003   0.001879
     3  H    0.380227  -0.021865   0.633744  -0.021539  -0.021010  -0.002226
     4  H    0.381613  -0.021538  -0.021539   0.628997  -0.019421  -0.002125
     5  C    0.368762  -0.021003  -0.021010  -0.019421   4.725840   0.379350
     6  H   -0.022178   0.001879  -0.002226  -0.002125   0.379350   0.646127
     7  H   -0.022185  -0.002222   0.001880  -0.002128   0.379320  -0.023860
     8  C   -0.022862  -0.002135  -0.002133   0.001241   0.368007  -0.023039
     9  H   -0.002218  -0.000006   0.000394   0.000010  -0.022722  -0.002346
    10  H   -0.002209   0.000394  -0.000006   0.000009  -0.022703   0.001944
    11  C    0.000717   0.000008   0.000008  -0.000015  -0.021651  -0.002204
    12  H    0.000007   0.000002  -0.000001  -0.000000  -0.002161   0.000003
    13  H    0.000007  -0.000001   0.000002  -0.000000  -0.002165   0.000386
    14  C   -0.000005  -0.000000  -0.000000   0.000000   0.000693   0.000006
    15  H   -0.000000   0.000000  -0.000000   0.000000   0.000006   0.000002
    16  H   -0.000000  -0.000000   0.000000   0.000000   0.000010  -0.000001
    17  C    0.000000   0.000000   0.000000  -0.000000  -0.000005  -0.000000
    18  H    0.000000  -0.000000  -0.000000  -0.000000  -0.000000   0.000000
    19  C    0.000000  -0.000000  -0.000000  -0.000000   0.000000  -0.000000
    20  H    0.000000   0.000000   0.000000  -0.000000  -0.000000  -0.000000
    21  C   -0.000000  -0.000000   0.000000   0.000000   0.000000  -0.000000
    22  H    0.000000   0.000000   0.000000  -0.000000  -0.000000  -0.000000
    23  H    0.000000   0.000000   0.000000  -0.000000  -0.000000  -0.000000
    24  C   -0.000000  -0.000000  -0.000000   0.000000   0.000000   0.000000
    25  H   -0.000000  -0.000000   0.000000   0.000000   0.000000  -0.000000
    26  H    0.000000   0.000000   0.000000  -0.000000  -0.000000  -0.000000
    27  C    0.000000   0.000000   0.000000  -0.000000  -0.000000  -0.000000
    28  H    0.000000   0.000000   0.000000  -0.000000  -0.000000  -0.000000
    29  H    0.000000  -0.000000   0.000000  -0.000000  -0.000000  -0.000000
    30  C   -0.000000  -0.000000  -0.000000   0.000000   0.000000   0.000000
    31  H   -0.000000  -0.000000  -0.000000   0.000000   0.000000   0.000000
    32  H   -0.000000  -0.000000  -0.000000   0.000000   0.000000   0.000000
    33  C    0.000000   0.000000   0.000000  -0.000000  -0.000000  -0.000000
    34  H   -0.000000  -0.000000  -0.000000   0.000000   0.000000   0.000000
    35  H    0.000000  -0.000000   0.000000   0.000000  -0.000000  -0.000000
    36  H    0.000000   0.000000  -0.000000  -0.000000  -0.000000  -0.000000
               7          8          9         10         11         12
     1  C   -0.022185  -0.022862  -0.002218  -0.002209   0.000717   0.000007
     2  H   -0.002222  -0.002135  -0.000006   0.000394   0.000008   0.000002
     3  H    0.001880  -0.002133   0.000394  -0.000006   0.000008  -0.000001
     4  H   -0.002128   0.001241   0.000010   0.000009  -0.000015  -0.000000
     5  C    0.379320   0.368007  -0.022722  -0.022703  -0.021651  -0.002161
     6  H   -0.023860  -0.023039  -0.002346   0.001944  -0.002204   0.000003
     7  H    0.646240  -0.023039   0.001946  -0.002345  -0.002196   0.000392
     8  C   -0.023039   4.738826   0.378352   0.378431   0.368966  -0.022727
     9  H    0.001946   0.378352   0.649900  -0.023869  -0.022798   0.001934
    10  H   -0.002345   0.378431  -0.023869   0.649515  -0.022774  -0.002341
    11  C   -0.002196   0.368966  -0.022798  -0.022774   4.738648   0.378571
    12  H    0.000392  -0.022727   0.001934  -0.002341   0.378571   0.647824
    13  H    0.000003  -0.022538  -0.002277   0.001922   0.378628  -0.023809
    14  C    0.000007  -0.021696  -0.002192  -0.002209   0.364265  -0.022444
    15  H   -0.000001  -0.002022   0.000377  -0.000001  -0.022047   0.001880
    16  H    0.000002  -0.002470  -0.000002   0.000433  -0.023364  -0.002244
    17  C   -0.000000   0.000727   0.000008   0.000007  -0.022912  -0.002342
    18  H   -0.000000   0.000003  -0.000001   0.000001  -0.001751   0.000375
    19  C    0.000000  -0.000002   0.000000  -0.000000   0.000030   0.000011
    20  H   -0.000000   0.000000   0.000000   0.000000  -0.000018  -0.000002
    21  C    0.000000  -0.000000  -0.000000  -0.000000   0.000045  -0.000002
    22  H   -0.000000   0.000002  -0.000001   0.000000   0.000009  -0.000001
    23  H   -0.000000   0.000000   0.000000  -0.000000  -0.000002   0.000000
    24  C    0.000000  -0.000000   0.000000  -0.000000   0.000003   0.000000
    25  H    0.000000   0.000000  -0.000000  -0.000000   0.000000  -0.000000
    26  H   -0.000000   0.000000   0.000000   0.000000  -0.000005   0.000000
    27  C   -0.000000   0.000000   0.000000   0.000000  -0.000000   0.000000
    28  H   -0.000000   0.000000   0.000000  -0.000000  -0.000000  -0.000000
    29  H    0.000000   0.000000  -0.000000   0.000000  -0.000000  -0.000000
    30  C    0.000000  -0.000000  -0.000000  -0.000000   0.000000  -0.000000
    31  H    0.000000  -0.000000  -0.000000  -0.000000   0.000000  -0.000000
    32  H    0.000000  -0.000000   0.000000  -0.000000   0.000000   0.000000
    33  C   -0.000000   0.000000   0.000000   0.000000  -0.000000   0.000000
    34  H    0.000000  -0.000000  -0.000000  -0.000000   0.000000  -0.000000
    35  H   -0.000000   0.000000  -0.000000   0.000000  -0.000000  -0.000000
    36  H   -0.000000   0.000000   0.000000   0.000000  -0.000000   0.000000
              13         14         15         16         17         18
     1  C    0.000007  -0.000005  -0.000000  -0.000000   0.000000   0.000000
     2  H   -0.000001  -0.000000   0.000000  -0.000000   0.000000  -0.000000
     3  H    0.000002  -0.000000  -0.000000   0.000000   0.000000  -0.000000
     4  H   -0.000000   0.000000   0.000000   0.000000  -0.000000  -0.000000
     5  C   -0.002165   0.000693   0.000006   0.000010  -0.000005  -0.000000
     6  H    0.000386   0.000006   0.000002  -0.000001  -0.000000   0.000000
     7  H    0.000003   0.000007  -0.000001   0.000002  -0.000000  -0.000000
     8  C   -0.022538  -0.021696  -0.002022  -0.002470   0.000727   0.000003
     9  H   -0.002277  -0.002192   0.000377  -0.000002   0.000008  -0.000001
    10  H    0.001922  -0.002209  -0.000001   0.000433   0.000007   0.000001
    11  C    0.378628   0.364265  -0.022047  -0.023364  -0.022912  -0.001751
    12  H   -0.023809  -0.022444   0.001880  -0.002244  -0.002342   0.000375
    13  H    0.646836  -0.022881  -0.002407   0.001969  -0.001748   0.000017
    14  C   -0.022881   4.725586   0.380506   0.375101   0.384055  -0.025401
    15  H   -0.002407   0.380506   0.640923  -0.022827  -0.022280   0.001686
    16  H    0.001969   0.375101  -0.022827   0.647485  -0.023886  -0.001184
    17  C   -0.001748   0.384055  -0.022280  -0.023886   4.822321   0.387726
    18  H    0.000017  -0.025401   0.001686  -0.001184   0.387726   0.623004
    19  C    0.000113  -0.025770  -0.004331   0.000704   0.596053  -0.028768
    20  H   -0.000007   0.001344   0.000018  -0.000033  -0.028813  -0.005382
    21  C    0.000011  -0.004881  -0.002391   0.000097  -0.025660   0.001334
    22  H    0.000003  -0.002377  -0.001146  -0.000028  -0.004274   0.000018
    23  H    0.000000   0.000078   0.000010   0.000014   0.000330  -0.000034
    24  C   -0.000002   0.000059  -0.000031  -0.000004   0.000303  -0.000016
    25  H    0.000000  -0.000002  -0.000002   0.000000   0.000010  -0.000001
    26  H    0.000002   0.000029   0.000010   0.000000   0.000090  -0.000004
    27  C    0.000000  -0.000000   0.000005   0.000000  -0.000004   0.000000
    28  H    0.000000  -0.000000   0.000000   0.000000  -0.000000   0.000000
    29  H    0.000000  -0.000000  -0.000000   0.000000   0.000000   0.000000
    30  C   -0.000000   0.000000  -0.000000  -0.000000   0.000000  -0.000000
    31  H   -0.000000  -0.000000  -0.000000  -0.000000  -0.000000  -0.000000
    32  H   -0.000000   0.000000  -0.000000  -0.000000   0.000000  -0.000000
    33  C    0.000000  -0.000000   0.000000   0.000000  -0.000000   0.000000
    34  H   -0.000000   0.000000  -0.000000  -0.000000   0.000000  -0.000000
    35  H    0.000000  -0.000000   0.000000   0.000000  -0.000000   0.000000
    36  H    0.000000   0.000000   0.000000   0.000000  -0.000000   0.000000
              19         20         21         22         23         24
     1  C    0.000000   0.000000  -0.000000   0.000000   0.000000  -0.000000
     2  H   -0.000000   0.000000  -0.000000   0.000000   0.000000  -0.000000
     3  H   -0.000000   0.000000   0.000000   0.000000   0.000000  -0.000000
     4  H   -0.000000  -0.000000   0.000000  -0.000000  -0.000000   0.000000
     5  C    0.000000  -0.000000   0.000000  -0.000000  -0.000000   0.000000
     6  H   -0.000000  -0.000000  -0.000000  -0.000000  -0.000000   0.000000
     7  H    0.000000  -0.000000   0.000000  -0.000000  -0.000000   0.000000
     8  C   -0.000002   0.000000  -0.000000   0.000002   0.000000  -0.000000
     9  H    0.000000   0.000000  -0.000000  -0.000001   0.000000   0.000000
    10  H   -0.000000   0.000000  -0.000000   0.000000  -0.000000  -0.000000
    11  C    0.000030  -0.000018   0.000045   0.000009  -0.000002   0.000003
    12  H    0.000011  -0.000002  -0.000002  -0.000001   0.000000   0.000000
    13  H    0.000113  -0.000007   0.000011   0.000003   0.000000  -0.000002
    14  C   -0.025770   0.001344  -0.004881  -0.002377   0.000078   0.000059
    15  H   -0.004331   0.000018  -0.002391  -0.001146   0.000010  -0.000031
    16  H    0.000704  -0.000033   0.000097  -0.000028   0.000014  -0.000004
    17  C    0.596053  -0.028813  -0.025660  -0.004274   0.000330   0.000303
    18  H   -0.028768  -0.005382   0.001334   0.000018  -0.000034  -0.000016
    19  C    4.822472   0.387789   0.384042  -0.022220  -0.023013  -0.023658
    20  H    0.387789   0.622991  -0.025435   0.001687  -0.001934  -0.001134
    21  C    0.384042  -0.025435   4.725170   0.380422   0.377477   0.362187
    22  H   -0.022220   0.001687   0.380422   0.640646  -0.023013  -0.021883
    23  H   -0.023013  -0.001934   0.377477  -0.023013   0.641607  -0.023325
    24  C   -0.023658  -0.001134   0.362187  -0.021883  -0.023325   4.741174
    25  H   -0.002389   0.000383  -0.022396   0.001882  -0.002274   0.378725
    26  H   -0.001989   0.000002  -0.022742  -0.002413   0.001947   0.378917
    27  C    0.000752  -0.000005  -0.021856  -0.002031  -0.002375   0.368614
    28  H    0.000007   0.000001  -0.002219  -0.000002   0.000438  -0.022754
    29  H    0.000008  -0.000001  -0.002211   0.000374   0.000001  -0.022794
    30  C   -0.000005   0.000000   0.000697   0.000006   0.000008  -0.021689
    31  H   -0.000000   0.000000   0.000007   0.000002  -0.000001  -0.002208
    32  H   -0.000000  -0.000000   0.000007  -0.000001   0.000002  -0.002199
    33  C    0.000000  -0.000000  -0.000005  -0.000000  -0.000000   0.000718
    34  H   -0.000000   0.000000   0.000000   0.000000   0.000000  -0.000015
    35  H    0.000000  -0.000000  -0.000000   0.000000  -0.000000   0.000008
    36  H    0.000000  -0.000000  -0.000000  -0.000000   0.000000   0.000008
              25         26         27         28         29         30
     1  C   -0.000000   0.000000   0.000000   0.000000   0.000000  -0.000000
     2  H   -0.000000   0.000000   0.000000   0.000000  -0.000000  -0.000000
     3  H    0.000000   0.000000   0.000000   0.000000   0.000000  -0.000000
     4  H    0.000000  -0.000000  -0.000000  -0.000000  -0.000000   0.000000
     5  C    0.000000  -0.000000  -0.000000  -0.000000  -0.000000   0.000000
     6  H   -0.000000  -0.000000  -0.000000  -0.000000  -0.000000   0.000000
     7  H    0.000000  -0.000000  -0.000000  -0.000000   0.000000   0.000000
     8  C    0.000000   0.000000   0.000000   0.000000   0.000000  -0.000000
     9  H   -0.000000   0.000000   0.000000   0.000000  -0.000000  -0.000000
    10  H   -0.000000   0.000000   0.000000  -0.000000   0.000000  -0.000000
    11  C    0.000000  -0.000005  -0.000000  -0.000000  -0.000000   0.000000
    12  H   -0.000000   0.000000   0.000000  -0.000000  -0.000000  -0.000000
    13  H    0.000000   0.000002   0.000000   0.000000   0.000000  -0.000000
    14  C   -0.000002   0.000029  -0.000000  -0.000000  -0.000000   0.000000
    15  H   -0.000002   0.000010   0.000005   0.000000  -0.000000  -0.000000
    16  H    0.000000   0.000000   0.000000   0.000000   0.000000  -0.000000
    17  C    0.000010   0.000090  -0.000004  -0.000000   0.000000   0.000000
    18  H   -0.000001  -0.000004   0.000000   0.000000   0.000000  -0.000000
    19  C   -0.002389  -0.001989   0.000752   0.000007   0.000008  -0.000005
    20  H    0.000383   0.000002  -0.000005   0.000001  -0.000001   0.000000
    21  C   -0.022396  -0.022742  -0.021856  -0.002219  -0.002211   0.000697
    22  H    0.001882  -0.002413  -0.002031  -0.000002   0.000374   0.000006
    23  H   -0.002274   0.001947  -0.002375   0.000438   0.000001   0.000008
    24  C    0.378725   0.378917   0.368614  -0.022754  -0.022794  -0.021689
    25  H    0.648737  -0.023882  -0.022772  -0.002341   0.001934  -0.002156
    26  H   -0.023882   0.647962  -0.022596   0.001923  -0.002279  -0.002160
    27  C   -0.022772  -0.022596   4.739768   0.378421   0.378371   0.367935
    28  H   -0.002341   0.001923   0.378421   0.650139  -0.023897  -0.022722
    29  H    0.001934  -0.002279   0.378371  -0.023897   0.650574  -0.022756
    30  C   -0.002156  -0.002160   0.367935  -0.022722  -0.022756   4.726095
    31  H    0.000003   0.000386  -0.023034   0.001945  -0.002346   0.379345
    32  H    0.000391   0.000004  -0.023028  -0.002345   0.001946   0.379319
    33  C    0.000007   0.000007  -0.022875  -0.002209  -0.002216   0.368732
    34  H   -0.000000  -0.000000   0.001241   0.000009   0.000009  -0.019427
    35  H    0.000002  -0.000001  -0.002136   0.000393  -0.000006  -0.020999
    36  H   -0.000001   0.000002  -0.002134  -0.000006   0.000394  -0.021008
              31         32         33         34         35         36
     1  C   -0.000000  -0.000000   0.000000  -0.000000   0.000000   0.000000
     2  H   -0.000000  -0.000000   0.000000  -0.000000  -0.000000   0.000000
     3  H   -0.000000  -0.000000   0.000000  -0.000000   0.000000  -0.000000
     4  H    0.000000   0.000000  -0.000000   0.000000   0.000000  -0.000000
     5  C    0.000000   0.000000  -0.000000   0.000000  -0.000000  -0.000000
     6  H    0.000000   0.000000  -0.000000   0.000000  -0.000000  -0.000000
     7  H    0.000000   0.000000  -0.000000   0.000000  -0.000000  -0.000000
     8  C   -0.000000  -0.000000   0.000000  -0.000000   0.000000   0.000000
     9  H   -0.000000   0.000000   0.000000  -0.000000  -0.000000   0.000000
    10  H   -0.000000  -0.000000   0.000000  -0.000000   0.000000   0.000000
    11  C    0.000000   0.000000  -0.000000   0.000000  -0.000000  -0.000000
    12  H   -0.000000   0.000000   0.000000  -0.000000  -0.000000   0.000000
    13  H   -0.000000  -0.000000   0.000000  -0.000000   0.000000   0.000000
    14  C   -0.000000   0.000000  -0.000000   0.000000  -0.000000   0.000000
    15  H   -0.000000  -0.000000   0.000000  -0.000000   0.000000   0.000000
    16  H   -0.000000  -0.000000   0.000000  -0.000000   0.000000   0.000000
    17  C   -0.000000   0.000000  -0.000000   0.000000  -0.000000  -0.000000
    18  H   -0.000000  -0.000000   0.000000  -0.000000   0.000000   0.000000
    19  C   -0.000000  -0.000000   0.000000  -0.000000   0.000000   0.000000
    20  H    0.000000  -0.000000  -0.000000   0.000000  -0.000000  -0.000000
    21  C    0.000007   0.000007  -0.000005   0.000000  -0.000000  -0.000000
    22  H    0.000002  -0.000001  -0.000000   0.000000   0.000000  -0.000000
    23  H   -0.000001   0.000002  -0.000000   0.000000  -0.000000   0.000000
    24  C   -0.002208  -0.002199   0.000718  -0.000015   0.000008   0.000008
    25  H    0.000003   0.000391   0.000007  -0.000000   0.000002  -0.000001
    26  H    0.000386   0.000004   0.000007  -0.000000  -0.000001   0.000002
    27  C   -0.023034  -0.023028  -0.022875   0.001241  -0.002136  -0.002134
    28  H    0.001945  -0.002345  -0.002209   0.000009   0.000393  -0.000006
    29  H   -0.002346   0.001946  -0.002216   0.000009  -0.000006   0.000394
    30  C    0.379345   0.379319   0.368732  -0.019427  -0.020999  -0.021008
    31  H    0.646448  -0.023870  -0.022193  -0.002125   0.001880  -0.002226
    32  H   -0.023870   0.646464  -0.022197  -0.002128  -0.002222   0.001880
    33  C   -0.022193  -0.022197   4.726301   0.381591   0.380231   0.380224
    34  H   -0.002125  -0.002128   0.381591   0.629229  -0.021546  -0.021549
    35  H    0.001880  -0.002222   0.380231  -0.021546   0.633781  -0.021868
    36  H   -0.002226   0.001880   0.380224  -0.021549  -0.021868   0.633886
 Mulliken charges:
               1
     1  C   -0.166095
     2  H    0.052581
     3  H    0.052527
     4  H    0.054897
     5  C   -0.089147
     6  H    0.048281
     7  H    0.048187
     8  C   -0.089891
     9  H    0.045510
    10  H    0.045800
    11  C   -0.088162
    12  H    0.047075
    13  H    0.047935
    14  C   -0.101871
    15  H    0.054064
    16  H    0.050228
    17  C   -0.059706
    18  H    0.048376
    19  C   -0.059837
    20  H    0.048547
    21  C   -0.101698
    22  H    0.054338
    23  H    0.054058
    24  C   -0.089003
    25  H    0.046140
    26  H    0.046789
    27  C   -0.090262
    28  H    0.045216
    29  H    0.044893
    30  C   -0.089216
    31  H    0.047987
    32  H    0.047976
    33  C   -0.166115
    34  H    0.054711
    35  H    0.052484
    36  H    0.052399
 Sum of Mulliken charges =  -0.00000
 Mulliken charges with hydrogens summed into heavy atoms:
               1
     1  C   -0.006089
     5  C    0.007321
     8  C    0.001420
    11  C    0.006848
    14  C    0.002421
    17  C   -0.011329
    19  C   -0.011290
    21  C    0.006698
    24  C    0.003926
    27  C   -0.000153
    30  C    0.006746
    33  C   -0.006521
 Electronic spatial extent (au):  <R**2>=           5161.3142
 Charge=              0.0000 electrons
 Dipole moment (field-independent basis, Debye):
    X=              0.0267    Y=             -0.1494    Z=             -0.0292  Tot=              0.1546
 Quadrupole moment (field-independent basis, Debye-Ang):
   XX=            -75.1982   YY=            -76.5082   ZZ=            -75.9232
   XY=             -0.0107   XZ=             -0.1859   YZ=              0.3009
 Traceless Quadrupole moment (field-independent basis, Debye-Ang):
   XX=              0.6784   YY=             -0.6317   ZZ=             -0.0467
   XY=             -0.0107   XZ=             -0.1859   YZ=              0.3009
 Octapole moment (field-independent basis, Debye-Ang**2):
  XXX=              0.8195  YYY=             -1.0621  ZZZ=             -0.1969  XYY=              0.2802
  XXY=              9.0793  XXZ=              1.1047  XZZ=             -0.0113  YZZ=             -0.1601
  YYZ=              2.8381  XYZ=             -0.4880
 Hexadecapole moment (field-independent basis, Debye-Ang**3):
 XXXX=          -5374.8667 YYYY=          -1215.3391 ZZZZ=           -232.1524 XXXY=             -3.8577
 XXXZ=             -1.9545 YYYX=              4.6956 YYYZ=              8.3782 ZZZX=             -2.8849
 ZZZY=             -0.3204 XXYY=          -1099.4636 XXZZ=           -927.1221 YYZZ=           -236.8052
 XXYZ=            -11.1917 YYXZ=              0.1776 ZZXY=             -0.9293
 N-N= 6.752842873277D+02 E-N=-2.425983168362D+03  KE= 4.587790132892D+02
 1\1\GINC-CN0069\SP\RHF\STO-3G\C12H24\GRAHA682\04-Dec-2017\0\\# hf/sto-
 3g geom=connectivity\\Title Card Required\\0,1\C,0,-6.854443,-0.134877
 ,-0.168414\H,0,-7.040212,-0.818328,0.677653\H,0,-6.884443,-0.743683,-1
 .088126\H,0,-7.697052,0.572652,-0.212848\C,0,-5.520363,0.56989,-0.0210
 4\H,0,-5.368713,1.273324,-0.861988\H,0,-5.523451,1.199843,0.889097\C,0
 ,-4.344023,-0.388597,0.042497\H,0,-4.335099,-1.020835,-0.868101\H,0,-4
 .48926,-1.094591,0.884904\C,0,-3.001393,0.302765,0.189464\H,0,-3.00708
 7,0.930311,1.102873\H,0,-2.850369,1.009328,-0.649702\C,0,-1.824677,-0.
 663624,0.246928\H,0,-1.800656,-1.277687,-0.673205\H,0,-1.994641,-1.373
 719,1.081199\C,0,-0.511885,0.023005,0.428088\H,0,-0.405457,0.634962,1.
 338635\C,0,0.511885,-0.023005,-0.428088\H,0,1.309936,0.73098941,-0.330
 51162\C,0,0.66232361,-0.99873087,-1.54747552\H,0,-0.16956124,-1.727819
 6,-1.52116387\H,0,1.58910486,-1.59069491,-1.40681318\C,0,0.7191391,-0.
 3328027,-2.9168484\H,0,1.53945558,0.41222882,-2.92993576\H,0,-0.208423
 32,0.25087277,-3.07556201\C,0,0.9091189,-1.31429029,-4.05826233\H,0,1.
 83868029,-1.89565436,-3.89363444\H,0,0.09146652,-2.0627036,-4.04050424
 \C,0,0.96084146,-0.65683581,-5.42632243\H,0,0.03177929,-0.07631524,-5.
 5839612\H,0,1.77719859,0.09057571,-5.43801332\C,0,1.1503321,-1.6494406
 5,-6.5563729\H,0,1.18604098,-1.15813679,-7.54121145\H,0,2.08857502,-2.
 21734487,-6.4354249\H,0,0.32849765,-2.38516802,-6.58298569\\Version=ES
 64L-G09RevE.01\State=1-A\HF=-462.8642402\RMSD=5.147e-09\Dipole=-0.0458
 447,-0.0164472,-0.0364253\Quadrupole=0.1387841,-0.0185006,-0.1202836,0
 .154212,-0.5080191,0.0915827\PG=C01 [X(C12H24)]\\@


 IF NO USE IS MADE OF THE LABOR OF PAST AGES,
 THE WORLD MUST REMAIN ALWAYS IN THE INFANCY OF KNOWLEDGE.

                          -- CICERO
 Job cpu time:       0 days  0 hours  0 minutes 48.5 seconds.
 File lengths (MBytes):  RWF=      5 Int=      0 D2E=      0 Chk=      2 Scr=      1
 Normal termination of Gaussian 09 at Mon Dec  4 11:09:09 2017.
47.94user 0.55system 0:02.37elapsed 2044%CPU (0avgtext+0avgdata 430432maxresident)k
0inputs+15632outputs (0major+24686minor)pagefaults 0swaps
