 Entering Gaussian System, Link 0=g09
 Initial command:
 /soft/gaussian/g09.d01_itasca/g09/l1.exe "/scratch/jgoodpas/2033997.node1081.localdomain/Gau-21252.inp" -scrdir="/scratch/jgoodpas/2033997.node1081.localdomain/"
 Entering Link 1 = /soft/gaussian/g09.d01_itasca/g09/l1.exe PID=     21253.
  
 Copyright (c) 1988,1990,1992,1993,1995,1998,2003,2009,2013,
            Gaussian, Inc.  All Rights Reserved.
  
 This is part of the Gaussian(R) 09 program.  It is based on
 the Gaussian(R) 03 system (copyright 2003, Gaussian, Inc.),
 the Gaussian(R) 98 system (copyright 1998, Gaussian, Inc.),
 the Gaussian(R) 94 system (copyright 1995, Gaussian, Inc.),
 the Gaussian 92(TM) system (copyright 1992, Gaussian, Inc.),
 the Gaussian 90(TM) system (copyright 1990, Gaussian, Inc.),
 the Gaussian 88(TM) system (copyright 1988, Gaussian, Inc.),
 the Gaussian 86(TM) system (copyright 1986, Carnegie Mellon
 University), and the Gaussian 82(TM) system (copyright 1983,
 Carnegie Mellon University). Gaussian is a federally registered
 trademark of Gaussian, Inc.
  
 This software contains proprietary and confidential information,
 including trade secrets, belonging to Gaussian, Inc.
  
 This software is provided under written license and may be
 used, copied, transmitted, or stored only in accord with that
 written license.
  
 The following legend is applicable only to US Government
 contracts under FAR:
  
                    RESTRICTED RIGHTS LEGEND
  
 Use, reproduction and disclosure by the US Government is
 subject to restrictions as set forth in subparagraphs (a)
 and (c) of the Commercial Computer Software - Restricted
 Rights clause in FAR 52.227-19.
  
 Gaussian, Inc.
 340 Quinnipiac St., Bldg. 40, Wallingford CT 06492
  
  
 ---------------------------------------------------------------
 Warning -- This program may not be used in any manner that
 competes with the business of Gaussian, Inc. or will provide
 assistance to any competitor of Gaussian, Inc.  The licensee
 of this program is prohibited from giving any competitor of
 Gaussian, Inc. access to this program.  By using this program,
 the user acknowledges that Gaussian, Inc. is engaged in the
 business of creating and licensing software in the field of
 computational chemistry and represents and warrants to the
 licensee that it is not a competitor of Gaussian, Inc. and that
 it will not use this program in any manner prohibited above.
 ---------------------------------------------------------------
  

 Cite this work as:
 Gaussian 09, Revision D.01,
 M. J. Frisch, G. W. Trucks, H. B. Schlegel, G. E. Scuseria, 
 M. A. Robb, J. R. Cheeseman, G. Scalmani, V. Barone, B. Mennucci, 
 G. A. Petersson, H. Nakatsuji, M. Caricato, X. Li, H. P. Hratchian, 
 A. F. Izmaylov, J. Bloino, G. Zheng, J. L. Sonnenberg, M. Hada, 
 M. Ehara, K. Toyota, R. Fukuda, J. Hasegawa, M. Ishida, T. Nakajima, 
 Y. Honda, O. Kitao, H. Nakai, T. Vreven, J. A. Montgomery, Jr., 
 J. E. Peralta, F. Ogliaro, M. Bearpark, J. J. Heyd, E. Brothers, 
 K. N. Kudin, V. N. Staroverov, T. Keith, R. Kobayashi, J. Normand, 
 K. Raghavachari, A. Rendell, J. C. Burant, S. S. Iyengar, J. Tomasi, 
 M. Cossi, N. Rega, J. M. Millam, M. Klene, J. E. Knox, J. B. Cross, 
 V. Bakken, C. Adamo, J. Jaramillo, R. Gomperts, R. E. Stratmann, 
 O. Yazyev, A. J. Austin, R. Cammi, C. Pomelli, J. W. Ochterski, 
 R. L. Martin, K. Morokuma, V. G. Zakrzewski, G. A. Voth, 
 P. Salvador, J. J. Dannenberg, S. Dapprich, A. D. Daniels, 
 O. Farkas, J. B. Foresman, J. V. Ortiz, J. Cioslowski, 
 and D. J. Fox, Gaussian, Inc., Wallingford CT, 2013.
 
 ******************************************
 Gaussian 09:  ES64L-G09RevD.01 24-Apr-2013
                17-Oct-2017 
 ******************************************
 %LindaWorkers=ic-node0009
 %Mem=11800mb
 %NProcShared=8
 Will use up to    8 processors via shared memory.
 %chk=dimer.chk
 SetLPE:  input flags=" -workerwait 250000 -opt "Tsnet.Node.lindarsharg: ssh " "
 SetLPE:    new flags=" -workerwait 250000 -opt "Tsnet.Node.lindarsharg: ssh "  -nodelist 'ic-node0009'"
 Will use up to    1 processors via Linda.
 -------------------------------------------------------------
 # Opt=(Z-mat,maxcycle=200) m06/def2svp Integral=SuperFineGrid
 -------------------------------------------------------------
 1/6=200,10=7,14=-1,18=40,26=5,38=1/1,3;
 2/12=2,17=6,18=5,29=3,40=1/2;
 3/5=43,7=101,11=2,16=1,25=1,30=1,71=1,74=-54,75=-7/1,2,3;
 4//1;
 5/5=2,38=5/2;
 6/7=2,8=2,9=2,10=2,28=1/1;
 7/29=1/1,2,3,16;
 1/6=200,10=7,14=-1,18=40,26=5/3(2);
 2/29=3/2;
 99//99;
 2/29=3/2;
 3/5=43,7=101,11=2,16=1,25=1,30=1,71=1,74=-54,75=-7/1,2,3;
 4/5=5,16=3,69=1/1;
 5/5=2,38=5/2;
 7//1,2,3,16;
 1/6=200,14=-1,18=40,26=5/3(-5);
 2/29=3/2;
 6/7=2,8=2,9=2,10=2,19=2,28=1/1;
 99/9=1/99;
 ------
 C12H24
 ------
 Symbolic Z-matrix:
 Charge =  0 Multiplicity = 1
 C
 C                    1    B1
 H                    1    B2       2    A2
 H                    1    B3       2    A3       3    D3       0
 H                    1    B4       2    A4       3    D4       0
 C                    2    B5       1    A5       3    D5       0
 H                    2    B6       1    A6       3    D6       0
 H                    2    B7       1    A7       3    D7       0
 C                    6    B8       2    A8       1    D8       0
 H                    6    B9       2    A9       1    D9       0
 H                    6    B10      2    A10      1    D10      0
 C                    9    B11      6    A11      2    D11      0
 H                    9    B12      6    A12      2    D12      0
 H                    9    B13      6    A13      2    D13      0
 C                    12   B14      9    A14      6    D14      0
 H                    12   B15      9    A15      6    D15      0
 H                    12   B16      9    A16      6    D16      0
 C                    15   B17      12   A17      9    D17      0
 H                    15   B18      12   A18      9    D18      0
 H                    15   B19      12   A19      9    D19      0
 C                    18   B20      15   A20      12   D20      0
 H                    18   B21      15   A21      12   D21      0
 H                    18   B22      15   A22      12   D22      0
 C                    21   B23      18   A23      15   D23      0
 H                    21   B24      18   A24      15   D24      0
 H                    21   B25      18   A25      15   D25      0
 C                    24   B26      21   A26      18   D26      0
 H                    24   B27      21   A27      18   D27      0
 H                    24   B28      21   A28      18   D28      0
 C                    27   B29      24   A29      21   D29      0
 H                    27   B30      24   A30      21   D30      0
 H                    27   B31      24   A31      21   D31      0
 C                    30   B32      27   A32      24   D32      0
 H                    33   B33      30   A33      27   D33      0
 H                    33   B34      30   A34      27   D34      0
 H                    30   B35      27   A35      24   D35      0
       Variables:
  B1                    1.52037                  
  B2                    1.09449                  
  A2                  110.2615                   
  B3                    1.09469                  
  A3                  110.99941                  
  D3                  240.2622                   
  B4                    1.09468                  
  A4                  111.00291                  
  D4                  119.74267                  
  B5                    1.52846                  
  A5                  111.49348                  
  D5                  180.02355                  
  B6                    1.09622                  
  A6                  109.14402                  
  D6                   58.466                    
  B7                    1.09622                  
  A7                  109.14651                  
  D7                  301.57536                  
  B8                    1.52957                  
  A8                  111.33085                  
  D8                  180.06732                  
  B9                    1.09685                  
  A9                  109.56808                  
  D9                   58.69294                  
  B10                   1.09685                  
  A10                 109.56982                  
  D10                 301.43153                  
  B11                   1.52959                  
  A11                 111.32932                  
  D11                 180.0495                   
  B12                   1.09682                  
  A12                 109.56214                  
  D12                  58.69169                  
  B13                   1.09682                  
  A13                 109.57144                  
  D13                 301.40424                  
  B14                   1.52958                  
  A14                 111.33412                  
  D14                 180.11548                  
  B15                   1.09681                  
  A15                 109.56324                  
  D15                  58.75236                  
  B16                   1.09681                  
  A16                 109.56894                  
  D16                 301.4668                   
  B17                   1.52958                  
  A17                 111.32441                  
  D17                 180.06818                  
  B18                   1.09681                  
  A18                 109.56207                  
  D18                  58.71257                  
  B19                   1.09681                  
  A19                 109.57415                  
  D19                 301.42268                  
  B20                   1.5296                   
  A20                 111.33392                  
  D20                 180.12584                  
  B21                   1.09681                  
  A21                 109.56096                  
  D21                  58.76319                  
  B22                   1.09681                  
  A22                 109.57002                  
  D22                 301.47796                  
  B23                   1.53006                  
  A23                 111.33208                  
  D23                 180.06793                  
  B24                   1.09681                  
  A24                 109.55355                  
  D24                  58.71484                  
  B25                   1.09681                  
  A25                 109.57481                  
  D25                 301.41764                  
  B26                   1.52997                  
  A26                 111.27387                  
  D26                 180.07455                  
  B27                   1.09745                  
  A27                 109.45602                  
  D27                  58.51678                  
  B28                   1.09744                  
  A28                 109.4982                   
  D28                 301.54273                  
  B29                   1.50175                  
  A29                 111.29171                  
  D29                 180.59371                  
  B30                   1.0969                   
  A30                 109.65896                  
  D30                  57.82495                  
  B31                   1.09657                  
  A31                 109.82846                  
  D31                 300.6713                   
  B32                   1.33889                  
  A32                 124.10415                  
  D32                 241.95558                  
  B33                   1.08555                  
  A33                 121.75919                  
  B34                   1.08571                  
  A34                 120.7488                   
  B35                   1.08828                  
  A35                 116.90896                  
  D35                  62.58421                  
       Constants:
  D33                   0.                       
  D34                 180.                       
 

 GradGradGradGradGradGradGradGradGradGradGradGradGradGradGradGradGradGrad
 Berny optimization.
 Initialization pass.
                       ----------------------------
                       !    Initial Parameters    !
                       ! (Angstroms and Degrees)  !
 ----------------------                            ----------------------
 !      Name          Value   Derivative information (Atomic Units)     !
 ------------------------------------------------------------------------
 !       B1          1.5204   estimate D2E/DX2                          !
 !       B2          1.0945   estimate D2E/DX2                          !
 !       A2        110.2615   estimate D2E/DX2                          !
 !       B3          1.0947   estimate D2E/DX2                          !
 !       A3        110.9994   estimate D2E/DX2                          !
 !       D3        240.2622   estimate D2E/DX2                          !
 !       B4          1.0947   estimate D2E/DX2                          !
 !       A4        111.0029   estimate D2E/DX2                          !
 !       D4        119.7427   estimate D2E/DX2                          !
 !       B5          1.5285   estimate D2E/DX2                          !
 !       A5        111.4935   estimate D2E/DX2                          !
 !       D5        180.0236   estimate D2E/DX2                          !
 !       B6          1.0962   estimate D2E/DX2                          !
 !       A6        109.144    estimate D2E/DX2                          !
 !       D6         58.466    estimate D2E/DX2                          !
 !       B7          1.0962   estimate D2E/DX2                          !
 !       A7        109.1465   estimate D2E/DX2                          !
 !       D7        301.5754   estimate D2E/DX2                          !
 !       B8          1.5296   estimate D2E/DX2                          !
 !       A8        111.3308   estimate D2E/DX2                          !
 !       D8        180.0673   estimate D2E/DX2                          !
 !       B9          1.0969   estimate D2E/DX2                          !
 !       A9        109.5681   estimate D2E/DX2                          !
 !       D9         58.6929   estimate D2E/DX2                          !
 !       B10         1.0969   estimate D2E/DX2                          !
 !       A10       109.5698   estimate D2E/DX2                          !
 !       D10       301.4315   estimate D2E/DX2                          !
 !       B11         1.5296   estimate D2E/DX2                          !
 !       A11       111.3293   estimate D2E/DX2                          !
 !       D11       180.0495   estimate D2E/DX2                          !
 !       B12         1.0968   estimate D2E/DX2                          !
 !       A12       109.5621   estimate D2E/DX2                          !
 !       D12        58.6917   estimate D2E/DX2                          !
 !       B13         1.0968   estimate D2E/DX2                          !
 !       A13       109.5714   estimate D2E/DX2                          !
 !       D13       301.4042   estimate D2E/DX2                          !
 !       B14         1.5296   estimate D2E/DX2                          !
 !       A14       111.3341   estimate D2E/DX2                          !
 !       D14       180.1155   estimate D2E/DX2                          !
 !       B15         1.0968   estimate D2E/DX2                          !
 !       A15       109.5632   estimate D2E/DX2                          !
 !       D15        58.7524   estimate D2E/DX2                          !
 !       B16         1.0968   estimate D2E/DX2                          !
 !       A16       109.5689   estimate D2E/DX2                          !
 !       D16       301.4668   estimate D2E/DX2                          !
 !       B17         1.5296   estimate D2E/DX2                          !
 !       A17       111.3244   estimate D2E/DX2                          !
 !       D17       180.0682   estimate D2E/DX2                          !
 !       B18         1.0968   estimate D2E/DX2                          !
 !       A18       109.5621   estimate D2E/DX2                          !
 !       D18        58.7126   estimate D2E/DX2                          !
 !       B19         1.0968   estimate D2E/DX2                          !
 !       A19       109.5742   estimate D2E/DX2                          !
 !       D19       301.4227   estimate D2E/DX2                          !
 !       B20         1.5296   estimate D2E/DX2                          !
 !       A20       111.3339   estimate D2E/DX2                          !
 !       D20       180.1258   estimate D2E/DX2                          !
 !       B21         1.0968   estimate D2E/DX2                          !
 !       A21       109.561    estimate D2E/DX2                          !
 !       D21        58.7632   estimate D2E/DX2                          !
 !       B22         1.0968   estimate D2E/DX2                          !
 !       A22       109.57     estimate D2E/DX2                          !
 !       D22       301.478    estimate D2E/DX2                          !
 !       B23         1.5301   estimate D2E/DX2                          !
 !       A23       111.3321   estimate D2E/DX2                          !
 !       D23       180.0679   estimate D2E/DX2                          !
 !       B24         1.0968   estimate D2E/DX2                          !
 !       A24       109.5536   estimate D2E/DX2                          !
 !       D24        58.7148   estimate D2E/DX2                          !
 !       B25         1.0968   estimate D2E/DX2                          !
 !       A25       109.5748   estimate D2E/DX2                          !
 !       D25       301.4176   estimate D2E/DX2                          !
 !       B26         1.53     estimate D2E/DX2                          !
 !       A26       111.2739   estimate D2E/DX2                          !
 !       D26       180.0745   estimate D2E/DX2                          !
 !       B27         1.0975   estimate D2E/DX2                          !
 !       A27       109.456    estimate D2E/DX2                          !
 !       D27        58.5168   estimate D2E/DX2                          !
 !       B28         1.0974   estimate D2E/DX2                          !
 !       A28       109.4982   estimate D2E/DX2                          !
 !       D28       301.5427   estimate D2E/DX2                          !
 !       B29         1.5018   estimate D2E/DX2                          !
 !       A29       111.2917   estimate D2E/DX2                          !
 !       D29       180.5937   estimate D2E/DX2                          !
 !       B30         1.0969   estimate D2E/DX2                          !
 !       A30       109.659    estimate D2E/DX2                          !
 !       D30        57.8249   estimate D2E/DX2                          !
 !       B31         1.0966   estimate D2E/DX2                          !
 !       A31       109.8285   estimate D2E/DX2                          !
 !       D31       300.6713   estimate D2E/DX2                          !
 !       B32         1.3389   estimate D2E/DX2                          !
 !       A32       124.1042   estimate D2E/DX2                          !
 !       D32       241.9556   estimate D2E/DX2                          !
 !       B33         1.0856   estimate D2E/DX2                          !
 !       A33       121.7592   estimate D2E/DX2                          !
 !       B34         1.0857   estimate D2E/DX2                          !
 !       A34       120.7488   estimate D2E/DX2                          !
 !       B35         1.0883   estimate D2E/DX2                          !
 !       A35       116.909    estimate D2E/DX2                          !
 !       D35        62.5842   estimate D2E/DX2                          !
 !       D33         0.0      Frozen                                    !
 !       D34       180.0      Frozen                                    !
 ------------------------------------------------------------------------
 Trust Radius=3.00D-01 FncErr=1.00D-07 GrdErr=1.00D-07
 Number of steps in this run=    200 maximum allowed number of steps=    204.
 GradGradGradGradGradGradGradGradGradGradGradGradGradGradGradGradGradGrad

 ---------------------------------------------------------------------------------------------------
                            Z-MATRIX (ANGSTROMS AND DEGREES)
   CD    Cent   Atom    N1       Length/X        N2       Alpha/Y        N3        Beta/Z          J
 ---------------------------------------------------------------------------------------------------
      1      1  C 
      2      2  C        1   1.520370(     1)
      3      3  H        1   1.094490(     2)      2  110.262(    36)
      4      4  H        1   1.094690(     3)      2  110.999(    37)      3  240.262(    70)      0
      5      5  H        1   1.094680(     4)      2  111.003(    38)      3  119.743(    71)      0
      6      6  C        2   1.528460(     5)      1  111.493(    39)      3  180.024(    72)      0
      7      7  H        2   1.096220(     6)      1  109.144(    40)      3   58.466(    73)      0
      8      8  H        2   1.096220(     7)      1  109.147(    41)      3  301.575(    74)      0
      9      9  C        6   1.529570(     8)      2  111.331(    42)      1  180.067(    75)      0
     10     10  H        6   1.096850(     9)      2  109.568(    43)      1   58.693(    76)      0
     11     11  H        6   1.096850(    10)      2  109.570(    44)      1  301.432(    77)      0
     12     12  C        9   1.529590(    11)      6  111.329(    45)      2  180.050(    78)      0
     13     13  H        9   1.096820(    12)      6  109.562(    46)      2   58.692(    79)      0
     14     14  H        9   1.096820(    13)      6  109.571(    47)      2  301.404(    80)      0
     15     15  C       12   1.529580(    14)      9  111.334(    48)      6  180.115(    81)      0
     16     16  H       12   1.096810(    15)      9  109.563(    49)      6   58.752(    82)      0
     17     17  H       12   1.096810(    16)      9  109.569(    50)      6  301.467(    83)      0
     18     18  C       15   1.529580(    17)     12  111.324(    51)      9  180.068(    84)      0
     19     19  H       15   1.096810(    18)     12  109.562(    52)      9   58.713(    85)      0
     20     20  H       15   1.096810(    19)     12  109.574(    53)      9  301.423(    86)      0
     21     21  C       18   1.529600(    20)     15  111.334(    54)     12  180.126(    87)      0
     22     22  H       18   1.096810(    21)     15  109.561(    55)     12   58.763(    88)      0
     23     23  H       18   1.096810(    22)     15  109.570(    56)     12  301.478(    89)      0
     24     24  C       21   1.530060(    23)     18  111.332(    57)     15  180.068(    90)      0
     25     25  H       21   1.096810(    24)     18  109.554(    58)     15   58.715(    91)      0
     26     26  H       21   1.096810(    25)     18  109.575(    59)     15  301.418(    92)      0
     27     27  C       24   1.529970(    26)     21  111.274(    60)     18  180.075(    93)      0
     28     28  H       24   1.097450(    27)     21  109.456(    61)     18   58.517(    94)      0
     29     29  H       24   1.097440(    28)     21  109.498(    62)     18  301.543(    95)      0
     30     30  C       27   1.501750(    29)     24  111.292(    63)     21  180.594(    96)      0
     31     31  H       27   1.096900(    30)     24  109.659(    64)     21   57.825(    97)      0
     32     32  H       27   1.096570(    31)     24  109.828(    65)     21  300.671(    98)      0
     33     33  C       30   1.338890(    32)     27  124.104(    66)     24  241.956(    99)      0
     34     34  H       33   1.085550(    33)     30  121.759(    67)     27    0.000(   100)      0
     35     35  H       33   1.085710(    34)     30  120.749(    68)     27  180.000(   101)      0
     36     36  H       30   1.088280(    35)     27  116.909(    69)     24   62.584(   102)      0
 ---------------------------------------------------------------------------------------------------
                         Z-Matrix orientation:                         
 ---------------------------------------------------------------------
 Center     Atomic      Atomic             Coordinates (Angstroms)
 Number     Number       Type             X           Y           Z
 ---------------------------------------------------------------------
      1          6           0        0.000000    0.000000    0.000000
      2          6           0        0.000000    0.000000    1.520370
      3          1           0        1.026765    0.000000   -0.379028
      4          1           0       -0.506937    0.887394   -0.392291
      5          1           0       -0.506996   -0.887322   -0.392350
      6          6           0       -1.422170   -0.000585    2.080391
      7          1           0        0.541621    0.882669    1.879869
      8          1           0        0.542250   -0.882265    1.879914
      9          6           0       -1.417829    0.001091    3.609954
     10          1           0       -1.960390   -0.883823    1.715305
     11          1           0       -1.961845    0.881033    1.713538
     12          6           0       -2.841064   -0.000725    4.170352
     13          1           0       -0.880476    0.884957    3.974709
     14          1           0       -0.877544   -0.880117    3.976802
     15          6           0       -2.836857    0.003823    5.699919
     16          1           0       -3.377699   -0.885606    3.807035
     17          1           0       -3.382035    0.879433    3.802024
     18          6           0       -4.260172    0.000310    6.260077
     19          1           0       -2.301279    0.889417    6.063059
     20          1           0       -2.294922   -0.875633    6.068507
     21          6           0       -4.256232    0.007986    7.789653
     22          1           0       -4.794941   -0.886396    5.898461
     23          1           0       -4.802856    0.878620    5.889863
     24          6           0       -5.680003    0.002782    8.349950
     25          1           0       -3.722490    0.895453    8.150919
     26          1           0       -3.712685   -0.869677    8.160135
     27          6           0       -5.674519    0.012323    9.879880
     28          1           0       -6.213070   -0.884521    7.985355
     29          1           0       -6.223979    0.879534    7.976089
     30          6           0       -7.071612   -0.007278   10.430335
     31          1           0       -5.128482    0.892261   10.241464
     32          1           0       -5.141577   -0.869376   10.255440
     33          6           0       -7.595135    0.967368   11.184400
     34          1           0       -7.025910    1.852839   11.449624
     35          1           0       -8.613474    0.896794   11.554227
     36          1           0       -7.679357   -0.880293   10.200458
 ---------------------------------------------------------------------
                    Distance matrix (angstroms):
                    1          2          3          4          5
     1  C    0.000000
     2  C    1.520370   0.000000
     3  H    1.094490   2.159157   0.000000
     4  H    1.094690   2.168577   1.771972   0.000000
     5  H    1.094680   2.168613   1.771988   1.774717   0.000000
     6  C    2.520038   1.528460   3.470738   2.782142   2.781779
     7  H    2.146244   1.096220   2.473274   2.502440   3.065199
     8  H    2.146276   1.096220   2.473047   3.065192   2.502823
     9  C    3.878402   2.525193   4.678463   4.199193   4.199682
    10  H    2.750735   2.159230   3.753727   3.113149   2.560191
    11  H    2.749776   2.159252   3.753244   2.559554   3.111018
    12  C    5.046135   3.885106   5.971344   5.201405   5.201170
    13  H    4.166137   2.753574   4.834847   4.382948   4.727755
    14  H    4.166491   2.752953   4.834693   4.727624   4.384843
    15  C    6.366856   5.051376   7.202859   6.582116   6.583171
    16  H    5.165913   4.173965   6.140580   5.386942   5.086823
    17  H    5.164005   4.173428   6.139390   5.085128   5.383311
    18  C    7.572162   6.372903   8.487015   7.689454   7.689539
    19  H    6.545810   5.169427   7.305301   6.700091   6.931707
    20  H    6.546768   5.169037   7.305548   6.931599   6.703692
    21  C    8.876613   7.577564   9.728179   9.042941   9.044530
    22  H    7.653038   6.553231   8.607254   7.817088   7.613197
    23  H    7.650482   6.552241   8.605547   7.610549   7.812756
    24  C   10.098718   8.882882  11.007988  10.196564  10.197063
    25  H    9.005346   7.656563   9.803941   9.128324   9.300814
    26  H    9.007118   7.656817   9.804898   9.300974   9.133551
    27  C   11.393522  10.103550  12.253675  11.532006  11.533922
    28  H   10.156304   9.010030  11.097769  10.290024  10.136332
    29  H   10.155269   9.010427  11.097515  10.134812  10.287684
    30  C   12.601572  11.375202  13.506520  12.689548  12.688545
    31  H   11.488475  10.156522  12.307642  11.594631  11.730433
    32  H   11.505028  10.173154  12.324616  11.744799  11.612713
    33  C   13.554065  12.329451  14.456342  13.574562  13.700465
    34  H   13.560617  12.303923  14.428985  13.552124  13.792646
    35  H   14.439402  13.254224  15.366880  14.437289  14.547122
    36  H   12.798312  11.622882  13.729421  12.914127  12.792592
                    6          7          8          9         10
     6  C    0.000000
     7  H    2.162596   0.000000
     8  H    2.162521   1.764935   0.000000
     9  C    1.529570   2.758590   2.759577   0.000000
    10  H    1.096850   3.067188   2.508049   2.160357   0.000000
    11  H    1.096850   2.508986   3.067147   2.160241   1.764858
    12  C    2.526103   4.179624   4.179717   1.529590   2.753671
    13  H    2.160106   2.531941   3.087943   1.096820   3.065894
    14  H    2.160225   3.085219   2.532343   1.096820   2.507378
    15  C    3.886174   5.174869   5.176481   2.526184   4.175316
    16  H    2.754752   4.711883   4.368044   2.160130   2.526678
    17  H    2.753093   4.369184   4.711486   2.160203   3.079698
    18  C    5.052132   6.559116   6.559576   3.886138   5.169685
    19  H    4.174516   5.057787   5.359405   2.754511   4.707818
    20  H    4.175222   5.355585   5.059042   2.753620   4.366045
    21  C    6.373983   7.662246   7.664398   5.052372   6.554687
    22  H    5.170871   6.910685   6.680894   4.174899   5.053066
    23  H    5.168570   6.681580   6.910178   4.174500   5.349089
    24  C    7.578689   9.019133   9.020039   6.374456   7.657682
    25  H    6.553295   7.583462   7.789339   5.170272   6.905647
    26  H    6.554775   7.785345   7.585896   5.169986   6.678816
    27  C    8.883393  10.168485  10.170937   7.578358   9.014328
    28  H    7.655238   9.275008   9.105535   6.551548   7.576200
    29  H    7.654491   9.106989   9.276268   6.552394   7.777212
    30  C   10.081558  11.483196  11.482430   8.859059  10.141236
    31  H    9.007611  10.102794  10.257762   7.651148   9.267507
    32  H    9.023315  10.272224  10.122030   7.667235   9.113400
    33  C   11.041984  12.360756  12.498466   9.821662  11.173228
    34  H   11.073375  12.238831  12.503488   9.815293  11.309544
    35  H   11.927855  13.319503  13.438179  10.755978  12.009934
    36  H   10.288916  11.828979  11.697277   9.133363  10.232518
                   11         12         13         14         15
    11  H    0.000000
    12  C    2.754352   0.000000
    13  H    2.506446   2.160234   0.000000
    14  H    3.065897   2.160139   1.765078   0.000000
    15  C    4.174491   1.529580   2.753212   2.754885   0.000000
    16  H    3.083567   1.096810   3.065801   2.505919   2.160233
    17  H    2.525611   1.096810   2.507518   3.065785   2.160074
    18  C    5.170010   2.526029   4.174668   4.175006   1.529580
    19  H    4.362754   2.160107   2.525848   3.083949   1.096810
    20  H    4.707714   2.160261   3.079663   2.526699   1.096810
    21  C    6.553289   3.886145   5.169004   5.171276   2.526189
    22  H    5.353860   2.754707   4.707605   4.363349   2.160092
    23  H    5.051043   2.752925   4.364965   4.707550   2.160208
    24  C    7.657544   5.052586   6.554115   6.554963   3.886662
    25  H    6.673826   4.174322   5.051523   5.354402   2.754406
    26  H    6.905725   4.175306   5.349574   5.053554   2.753678
    27  C    9.012644   6.373959   7.656068   7.658573   5.052175
    28  H    7.779832   5.167763   6.903107   6.673556   4.172671
    29  H    7.575310   5.167456   6.675634   6.904711   4.173777
    30  C   10.143045   7.555459   8.988957   8.987569   6.349024
    31  H    9.096881   6.548902   7.570854   7.775461   5.163962
    32  H    9.281094   6.563171   7.789881   7.589689   5.179477
    33  C   11.019920   8.528498   9.852567  10.024405   7.324559
    34  H   11.017284   8.598631   9.725097  10.055572   7.350247
    35  H   11.877860   9.415300  10.828134  10.973577   8.272824
    36  H   10.383642   7.781061   9.386205   9.219466   6.669807
                   16         17         18         19         20
    16  H    0.000000
    17  H    1.765051   0.000000
    18  C    2.753366   2.754271   0.000000
    19  H    3.065784   2.506075   2.160229   0.000000
    20  H    2.507341   3.065781   2.160135   1.765070   0.000000
    21  C    4.175114   4.174306   1.529600   2.753160   2.754971
    22  H    2.526388   3.083748   1.096810   3.065771   2.505818
    23  H    3.079243   2.525432   1.096810   2.507588   3.065787
    24  C    5.169905   5.170378   2.526558   4.175137   4.175568
    25  H    4.707482   4.362231   2.160015   2.525676   3.084013
    26  H    4.366000   4.707638   2.160287   3.079644   2.526855
    27  C    6.554472   6.553449   3.886321   5.168768   5.170755
    28  H    5.049524   5.350379   2.751966   4.705761   4.361911
    29  H    5.347714   5.049700   2.752139   4.364327   4.707119
    30  C    7.634432   7.637653   5.029443   6.529413   6.526588
    31  H    6.901300   6.672079   4.171449   5.045013   5.344912
    32  H    6.685317   6.913819   4.182840   5.360662   5.062992
    33  C    8.697460   8.500437   6.025457   7.366079   7.593502
    34  H    8.900433   8.527083   6.165433   7.229482   7.667022
    35  H    9.518890   9.352268   6.912520   8.366408   8.553287
    36  H    7.705852   7.905921   5.290831   7.012394   6.787134
                   21         22         23         24         25
    21  C    0.000000
    22  H    2.160262   0.000000
    23  H    2.160093   1.765055   0.000000
    24  C    1.530060   2.753865   2.754724   0.000000
    25  H    1.096810   3.065731   2.505963   2.160632   0.000000
    26  H    1.096810   2.507335   3.065803   2.160452   1.765182
    27  C    2.525986   4.175291   4.174985   1.529970   2.753114
    28  H    2.159649   2.523137   3.080334   1.097450   3.065731
    29  H    2.160181   3.078506   2.524268   1.097440   2.507641
    30  C    3.860025   5.147228   5.152471   2.502934   4.150575
    31  H    2.748480   4.704950   4.363789   2.161753   2.519365
    32  H    2.762916   4.370779   4.714709   2.163667   3.091510
    33  C    4.857262   6.262482   5.986387   3.554190   4.919812
    34  H    4.946715   6.579973   6.066467   3.852552   4.765567
    35  H    5.826453   7.053272   6.826870   4.435301   5.958542
    36  H    4.280048   5.179486   5.472593   2.863847   4.796945
                   26         27         28         29         30
    26  H    0.000000
    27  C    2.753949   0.000000
    28  H    2.506530   2.164161   0.000000
    29  H    3.065976   2.162957   1.764112   0.000000
    30  C    4.144867   1.501750   2.735795   2.743764   0.000000
    31  H    3.072595   1.096900   3.069742   2.516387   2.149557
    32  H    2.536145   1.096570   2.510302   3.070134   2.121046
    33  C    5.253030   2.510508   3.946326   3.490136   1.338890
    34  H    5.404654   2.770894   4.489433   3.695384   2.121573
    35  H    6.217556   3.496167   4.655305   4.302680   2.111355
    36  H    4.460663   2.217862   2.656445   3.187936   1.088280
                   31         32         33         34         35
    31  H    0.000000
    32  H    1.761741   0.000000
    33  C    2.641807   3.202584   0.000000
    34  H    2.445934   3.519551   1.085550   0.000000
    35  H    3.724048   4.106126   1.085710   1.856157   0.000000
    36  H    3.106541   2.538400   2.095015   3.075292   2.421426
                   36
    36  H    0.000000
 Stoichiometry    C12H24
 Framework group  C1[X(C12H24)]
 Deg. of freedom   102
 Full point group                 C1      NOp   1
 Largest Abelian subgroup         C1      NOp   1
 Largest concise Abelian subgroup C1      NOp   1
                         Standard orientation:                         
 ---------------------------------------------------------------------
 Center     Atomic      Atomic             Coordinates (Angstroms)
 Number     Number       Type             X           Y           Z
 ---------------------------------------------------------------------
      1          6           0       -6.772685   -0.424946    0.091142
      2          6           0       -5.523512    0.441464    0.111766
      3          1           0       -7.668597    0.200022    0.159438
      4          1           0       -6.780113   -1.122703    0.934603
      5          1           0       -6.832745   -1.004790   -0.835410
      6          6           0       -4.253821   -0.404176    0.017062
      7          1           0       -5.510291    1.031255    1.035708
      8          1           0       -5.562940    1.149141   -0.724498
      9          6           0       -2.999516    0.470916    0.039792
     10          1           0       -4.273585   -0.994329   -0.907281
     11          1           0       -4.221883   -1.113867    0.852765
     12          6           0       -1.728946   -0.375299   -0.056211
     13          1           0       -2.979512    1.060128    0.964694
     14          1           0       -3.031793    1.181077   -0.795459
     15          6           0       -0.474476    0.499495   -0.030627
     16          1           0       -1.748208   -0.963036   -0.982055
     17          1           0       -1.697526   -1.086794    0.777923
     18          6           0        0.795893   -0.346810   -0.128331
     19          1           0       -0.454737    1.086218    0.895850
     20          1           0       -0.506211    1.211881   -0.863988
     21          6           0        2.050614    0.527563   -0.099645
     22          1           0        0.776912   -0.931927   -1.055838
     23          1           0        0.826683   -1.060660    0.703812
     24          6           0        3.321306   -0.318924   -0.199067
     25          1           0        2.069914    1.111589    0.828543
     26          1           0        2.019572    1.242230   -0.931078
     27          6           0        4.575495    0.556792   -0.168405
     28          1           0        3.298891   -0.904306   -1.127088
     29          1           0        3.349789   -1.035807    0.631380
     30          6           0        5.822486   -0.272497   -0.280412
     31          1           0        4.587834    1.151570    0.753156
     32          1           0        4.554541    1.265935   -1.004553
     33          6           0        6.768961   -0.336368    0.664433
     34          1           0        6.689093    0.222122    1.591864
     35          1           0        7.650425   -0.954985    0.526228
     36          1           0        5.953695   -0.843221   -1.197697
 ---------------------------------------------------------------------
 Rotational constants (GHZ):      6.3668052      0.1581640      0.1570051
 Standard basis: def2SVP (5D, 7F)
 There are   300 symmetry adapted cartesian basis functions of A   symmetry.
 There are   288 symmetry adapted basis functions of A   symmetry.
   288 basis functions,   468 primitive gaussians,   300 cartesian basis functions
    48 alpha electrons       48 beta electrons
       nuclear repulsion energy       654.7476190068 Hartrees.
 NAtoms=   36 NActive=   36 NUniq=   36 SFac= 1.00D+00 NAtFMM=   60 NAOKFM=F Big=F
 Integral buffers will be    131072 words long.
 Raffenetti 2 integral format.
 Two-electron integral symmetry is turned on.
 One-electron integrals computed using PRISM.
   1 Symmetry operations used in ECPInt.
 ECPInt:  NShTT=   10440 NPrTT=   35208 LenC2=    8761 LenP2D=   21882.
 LDataN:  DoStor=T MaxTD1= 4 Len=   56
 NBasis=   288 RedAO= T EigKep=  7.65D-04  NBF=   288
 NBsUse=   288 1.00D-06 EigRej= -1.00D+00 NBFU=   288
 ExpMin= 1.22D-01 ExpMax= 1.24D+03 ExpMxC= 1.86D+02 IAcc=3 IRadAn=         7 AccDes= 0.00D+00
 Harris functional with IExCor= 1009 and IRadAn=       7 diagonalized for initial guess.
 HarFok:  IExCor= 1009 AccDes= 0.00D+00 IRadAn=         7 IDoV= 1 UseB2=F ITyADJ=14
 ICtDFT=  3500011 ScaDFX=  1.000000  1.000000  1.000000  1.000000
 FoFCou: FMM=F IPFlag=           0 FMFlag=      100000 FMFlg1=           0
         NFxFlg=           0 DoJE=T BraDBF=F KetDBF=T FulRan=T
         wScrn=  0.000000 ICntrl=     500 IOpCl=  0 I1Cent=   200000004 NGrid=           0
         NMat0=    1 NMatS0=      1 NMatT0=    0 NMatD0=    1 NMtDS0=    0 NMtDT0=    0
 Petite list used in FoFCou.
 Keep R1 ints in memory in canonical form, NReq=879895090.
 Requested convergence on RMS density matrix=1.00D-08 within 128 cycles.
 Requested convergence on MAX density matrix=1.00D-06.
 Requested convergence on             energy=1.00D-06.
 No special actions if energy rises.
 Integral accuracy reduced to 1.0D-05 until final iterations.
 Initial convergence to 1.0D-05 achieved.  Increase integral accuracy.
 SCF Done:  E(RM06) =  -470.974909391     A.U. after   12 cycles
            NFock= 12  Conv=0.72D-08     -V/T= 2.0127

 **********************************************************************

            Population analysis using the SCF density.

 **********************************************************************

 Orbital symmetries:
       Occupied  (A) (A) (A) (A) (A) (A) (A) (A) (A) (A) (A) (A)
                 (A) (A) (A) (A) (A) (A) (A) (A) (A) (A) (A) (A)
                 (A) (A) (A) (A) (A) (A) (A) (A) (A) (A) (A) (A)
                 (A) (A) (A) (A) (A) (A) (A) (A) (A) (A) (A) (A)
       Virtual   (A) (A) (A) (A) (A) (A) (A) (A) (A) (A) (A) (A)
                 (A) (A) (A) (A) (A) (A) (A) (A) (A) (A) (A) (A)
                 (A) (A) (A) (A) (A) (A) (A) (A) (A) (A) (A) (A)
                 (A) (A) (A) (A) (A) (A) (A) (A) (A) (A) (A) (A)
                 (A) (A) (A) (A) (A) (A) (A) (A) (A) (A) (A) (A)
                 (A) (A) (A) (A) (A) (A) (A) (A) (A) (A) (A) (A)
                 (A) (A) (A) (A) (A) (A) (A) (A) (A) (A) (A) (A)
                 (A) (A) (A) (A) (A) (A) (A) (A) (A) (A) (A) (A)
                 (A) (A) (A) (A) (A) (A) (A) (A) (A) (A) (A) (A)
                 (A) (A) (A) (A) (A) (A) (A) (A) (A) (A) (A) (A)
                 (A) (A) (A) (A) (A) (A) (A) (A) (A) (A) (A) (A)
                 (A) (A) (A) (A) (A) (A) (A) (A) (A) (A) (A) (A)
                 (A) (A) (A) (A) (A) (A) (A) (A) (A) (A) (A) (A)
                 (A) (A) (A) (A) (A) (A) (A) (A) (A) (A) (A) (A)
                 (A) (A) (A) (A) (A) (A) (A) (A) (A) (A) (A) (A)
                 (A) (A) (A) (A) (A) (A) (A) (A) (A) (A) (A) (A)
                 (A) (A) (A) (A) (A) (A) (A) (A) (A) (A) (A) (A)
                 (A) (A) (A) (A) (A) (A) (A) (A) (A) (A) (A) (A)
                 (A) (A) (A) (A) (A) (A) (A) (A) (A) (A) (A) (A)
                 (A) (A) (A) (A) (A) (A) (A) (A) (A) (A) (A) (A)
 The electronic state is 1-A.
 Alpha  occ. eigenvalues --  -10.24847 -10.24451 -10.24162 -10.23914 -10.23786
 Alpha  occ. eigenvalues --  -10.23740 -10.23716 -10.23669 -10.23664 -10.23641
 Alpha  occ. eigenvalues --  -10.23632 -10.23199  -0.82197  -0.81024  -0.79016
 Alpha  occ. eigenvalues --   -0.76304  -0.73020  -0.69201  -0.64897  -0.60612
 Alpha  occ. eigenvalues --   -0.58413  -0.57681  -0.57497  -0.55325  -0.49727
 Alpha  occ. eigenvalues --   -0.48556  -0.47063  -0.45500  -0.44595  -0.43748
 Alpha  occ. eigenvalues --   -0.43190  -0.42268  -0.40624  -0.40443  -0.38974
 Alpha  occ. eigenvalues --   -0.37677  -0.36959  -0.36103  -0.35212  -0.34460
 Alpha  occ. eigenvalues --   -0.34281  -0.33802  -0.33589  -0.33344  -0.33052
 Alpha  occ. eigenvalues --   -0.32918  -0.30410  -0.26560
 Alpha virt. eigenvalues --    0.02223   0.06307   0.07016   0.07896   0.08160
 Alpha virt. eigenvalues --    0.08700   0.09137   0.09611   0.10233   0.10990
 Alpha virt. eigenvalues --    0.11225   0.12734   0.13555   0.13724   0.14959
 Alpha virt. eigenvalues --    0.15596   0.15906   0.16226   0.16246   0.16951
 Alpha virt. eigenvalues --    0.17168   0.18299   0.18563   0.19605   0.19797
 Alpha virt. eigenvalues --    0.20508   0.20826   0.22692   0.23222   0.23711
 Alpha virt. eigenvalues --    0.25881   0.26607   0.28248   0.32431   0.32706
 Alpha virt. eigenvalues --    0.35526   0.38430   0.40606   0.41484   0.41886
 Alpha virt. eigenvalues --    0.42578   0.42800   0.43403   0.43816   0.44493
 Alpha virt. eigenvalues --    0.44652   0.47463   0.48184   0.48994   0.50385
 Alpha virt. eigenvalues --    0.52029   0.52655   0.54081   0.55119   0.58792
 Alpha virt. eigenvalues --    0.59281   0.61280   0.61540   0.61951   0.62173
 Alpha virt. eigenvalues --    0.62318   0.62632   0.62903   0.63130   0.63255
 Alpha virt. eigenvalues --    0.64262   0.64397   0.65037   0.65130   0.65684
 Alpha virt. eigenvalues --    0.66098   0.66239   0.66469   0.66627   0.67085
 Alpha virt. eigenvalues --    0.67228   0.67520   0.68435   0.68721   0.69081
 Alpha virt. eigenvalues --    0.69499   0.69935   0.70361   0.70999   0.71088
 Alpha virt. eigenvalues --    0.71650   0.71827   0.72035   0.72972   0.73351
 Alpha virt. eigenvalues --    0.77233   0.82110   0.85151   0.87988   0.88720
 Alpha virt. eigenvalues --    0.94346   0.98303   0.98805   0.99868   1.00181
 Alpha virt. eigenvalues --    1.01969   1.02249   1.02753   1.03053   1.05211
 Alpha virt. eigenvalues --    1.06104   1.08309   1.09608   1.17408   1.18638
 Alpha virt. eigenvalues --    1.21128   1.23023   1.26835   1.27568   1.31596
 Alpha virt. eigenvalues --    1.31976   1.32989   1.33815   1.34872   1.35913
 Alpha virt. eigenvalues --    1.36293   1.37484   1.37889   1.38110   1.42468
 Alpha virt. eigenvalues --    1.50572   1.52653   1.57850   1.59242   1.62733
 Alpha virt. eigenvalues --    1.64346   1.65464   1.66327   1.66662   1.69838
 Alpha virt. eigenvalues --    1.71550   1.72933   1.73757   1.74044   1.74444
 Alpha virt. eigenvalues --    1.74741   1.75984   1.76504   1.76730   1.78007
 Alpha virt. eigenvalues --    1.78293   1.79108   1.79858   1.79991   1.80256
 Alpha virt. eigenvalues --    1.80434   1.80699   1.80994   1.81663   1.82383
 Alpha virt. eigenvalues --    1.82631   1.83969   1.84431   1.84795   1.85724
 Alpha virt. eigenvalues --    1.87015   1.88055   1.89571   1.90809   1.91342
 Alpha virt. eigenvalues --    1.91506   1.92280   1.93472   1.93709   1.94709
 Alpha virt. eigenvalues --    1.96582   1.99155   1.99614   2.01313   2.04272
 Alpha virt. eigenvalues --    2.05420   2.06568   2.09695   2.10327   2.11691
 Alpha virt. eigenvalues --    2.14087   2.14866   2.17645   2.22175   2.23408
 Alpha virt. eigenvalues --    2.27903   2.29865   2.31357   2.36335   2.37483
 Alpha virt. eigenvalues --    2.39491   2.39723   2.41202   2.41484   2.41996
 Alpha virt. eigenvalues --    2.42770   2.43563   2.44111   2.45583   2.46799
 Alpha virt. eigenvalues --    2.49094   2.50461   2.51188   2.52804   2.55437
 Alpha virt. eigenvalues --    2.56514   2.57507   2.58124   2.58628   2.59800
 Alpha virt. eigenvalues --    2.60497   2.61536   2.63232   2.65375   2.68972
 Alpha virt. eigenvalues --    2.72800   2.75119   2.78267   2.79180   2.80312
 Alpha virt. eigenvalues --    2.82370   2.83917   2.85229   2.85898   2.88496
 Alpha virt. eigenvalues --    2.90013   2.91785   2.92517   2.94917   2.95782
 Alpha virt. eigenvalues --    2.96869   2.97776   2.99743   3.00299   3.01303
 Alpha virt. eigenvalues --    3.04143   3.04634   3.06227   3.07606   3.20781
          Condensed to atoms (all electrons):
               1          2          3          4          5          6
     1  C    4.571387   0.421783   0.377961   0.394070   0.394029  -0.058834
     2  C    0.421783   4.674030  -0.014017  -0.023345  -0.023340   0.398589
     3  H    0.377961  -0.014017   0.656481  -0.024837  -0.024840   0.008284
     4  H    0.394070  -0.023345  -0.024837   0.653201  -0.027912  -0.008668
     5  H    0.394029  -0.023340  -0.024840  -0.027912   0.653295  -0.008667
     6  C   -0.058834   0.398589   0.008284  -0.008668  -0.008667   4.752064
     7  H   -0.023836   0.375245  -0.006693  -0.010178   0.008805  -0.022824
     8  H   -0.023805   0.375175  -0.006705   0.008804  -0.010167  -0.022764
     9  C    0.009389  -0.046181  -0.000555   0.000467   0.000469   0.364274
    10  H   -0.004396  -0.027301  -0.000047  -0.001941   0.007553   0.374677
    11  H   -0.004378  -0.027361  -0.000045   0.007555  -0.001947   0.374810
    12  C   -0.000510   0.008367   0.000016  -0.000008  -0.000008  -0.043098
    13  H    0.000294  -0.006640   0.000008  -0.000053   0.000024  -0.022340
    14  H    0.000298  -0.006629   0.000008   0.000024  -0.000053  -0.022316
    15  C    0.000009  -0.000440   0.000000   0.000000   0.000000   0.008161
    16  H    0.000007   0.000318   0.000000   0.000004  -0.000010  -0.007045
    17  H    0.000007   0.000325   0.000000  -0.000010   0.000004  -0.007023
    18  C    0.000000   0.000008   0.000000   0.000000   0.000000  -0.000458
    19  H    0.000000   0.000003   0.000000   0.000000   0.000000   0.000376
    20  H    0.000000   0.000003   0.000000   0.000000   0.000000   0.000385
    21  C    0.000000   0.000000   0.000000   0.000000   0.000000   0.000008
    22  H    0.000000   0.000000   0.000000   0.000000   0.000000   0.000003
    23  H    0.000000   0.000000   0.000000   0.000000   0.000000   0.000004
    24  C    0.000000   0.000000   0.000000   0.000000   0.000000   0.000000
    25  H    0.000000   0.000000   0.000000   0.000000   0.000000   0.000000
    26  H    0.000000   0.000000   0.000000   0.000000   0.000000   0.000000
    27  C    0.000000   0.000000   0.000000   0.000000   0.000000   0.000000
    28  H    0.000000   0.000000   0.000000   0.000000   0.000000   0.000000
    29  H    0.000000   0.000000   0.000000   0.000000   0.000000   0.000000
    30  C    0.000000   0.000000   0.000000   0.000000   0.000000   0.000000
    31  H    0.000000   0.000000   0.000000   0.000000   0.000000   0.000000
    32  H    0.000000   0.000000   0.000000   0.000000   0.000000   0.000000
    33  C    0.000000   0.000000   0.000000   0.000000   0.000000   0.000000
    34  H    0.000000   0.000000   0.000000   0.000000   0.000000   0.000000
    35  H    0.000000   0.000000   0.000000   0.000000   0.000000   0.000000
    36  H    0.000000   0.000000   0.000000   0.000000   0.000000   0.000000
               7          8          9         10         11         12
     1  C   -0.023836  -0.023805   0.009389  -0.004396  -0.004378  -0.000510
     2  C    0.375245   0.375175  -0.046181  -0.027301  -0.027361   0.008367
     3  H   -0.006693  -0.006705  -0.000555  -0.000047  -0.000045   0.000016
     4  H   -0.010178   0.008804   0.000467  -0.001941   0.007555  -0.000008
     5  H    0.008805  -0.010167   0.000469   0.007553  -0.001947  -0.000008
     6  C   -0.022824  -0.022764   0.364274   0.374677   0.374810  -0.043098
     7  H    0.691034  -0.034883  -0.007351   0.009505  -0.011838   0.000362
     8  H   -0.034883   0.691097  -0.007366  -0.011878   0.009504   0.000357
     9  C   -0.007351  -0.007366   4.749899  -0.020957  -0.020972   0.364122
    10  H    0.009505  -0.011878  -0.020957   0.696325  -0.037161  -0.007312
    11  H   -0.011838   0.009504  -0.020972  -0.037161   0.696144  -0.007330
    12  C    0.000362   0.000357   0.364122  -0.007312  -0.007330   4.747649
    13  H    0.007903  -0.002030   0.372270   0.009444  -0.011953  -0.021274
    14  H   -0.002039   0.007901   0.372151  -0.011929   0.009443  -0.021187
    15  C    0.000004   0.000004  -0.044192   0.000436   0.000430   0.366799
    16  H    0.000015  -0.000040  -0.021628   0.007735  -0.002009   0.371727
    17  H   -0.000040   0.000015  -0.021704  -0.002020   0.007742   0.371936
    18  C    0.000000   0.000000   0.008385   0.000001   0.000001  -0.045393
    19  H   -0.000013   0.000005  -0.007110   0.000014  -0.000040  -0.021314
    20  H    0.000005  -0.000012  -0.007104  -0.000040   0.000014  -0.021262
    21  C    0.000000   0.000000  -0.000460   0.000000   0.000000   0.008402
    22  H    0.000000   0.000000   0.000389  -0.000012   0.000005  -0.007179
    23  H    0.000000   0.000000   0.000390   0.000005  -0.000012  -0.007092
    24  C    0.000000   0.000000   0.000008   0.000000   0.000000  -0.000448
    25  H    0.000000   0.000000   0.000003   0.000000   0.000000   0.000381
    26  H    0.000000   0.000000   0.000002   0.000000   0.000000   0.000390
    27  C    0.000000   0.000000   0.000000   0.000000   0.000000   0.000007
    28  H    0.000000   0.000000   0.000000   0.000000   0.000000   0.000000
    29  H    0.000000   0.000000   0.000000   0.000000   0.000000  -0.000003
    30  C    0.000000   0.000000   0.000000   0.000000   0.000000   0.000000
    31  H    0.000000   0.000000   0.000000   0.000000   0.000000   0.000000
    32  H    0.000000   0.000000   0.000000   0.000000   0.000000   0.000000
    33  C    0.000000   0.000000   0.000000   0.000000   0.000000   0.000000
    34  H    0.000000   0.000000   0.000000   0.000000   0.000000   0.000000
    35  H    0.000000   0.000000   0.000000   0.000000   0.000000   0.000000
    36  H    0.000000   0.000000   0.000000   0.000000   0.000000   0.000000
              13         14         15         16         17         18
     1  C    0.000294   0.000298   0.000009   0.000007   0.000007   0.000000
     2  C   -0.006640  -0.006629  -0.000440   0.000318   0.000325   0.000008
     3  H    0.000008   0.000008   0.000000   0.000000   0.000000   0.000000
     4  H   -0.000053   0.000024   0.000000   0.000004  -0.000010   0.000000
     5  H    0.000024  -0.000053   0.000000  -0.000010   0.000004   0.000000
     6  C   -0.022340  -0.022316   0.008161  -0.007045  -0.007023  -0.000458
     7  H    0.007903  -0.002039   0.000004   0.000015  -0.000040   0.000000
     8  H   -0.002030   0.007901   0.000004  -0.000040   0.000015   0.000000
     9  C    0.372270   0.372151  -0.044192  -0.021628  -0.021704   0.008385
    10  H    0.009444  -0.011929   0.000436   0.007735  -0.002020   0.000001
    11  H   -0.011953   0.009443   0.000430  -0.002009   0.007742   0.000001
    12  C   -0.021274  -0.021187   0.366799   0.371727   0.371936  -0.045393
    13  H    0.696016  -0.036330  -0.007211   0.009380  -0.011859   0.000400
    14  H   -0.036330   0.696164  -0.007236  -0.011928   0.009377   0.000393
    15  C   -0.007211  -0.007236   4.743980  -0.021121  -0.021156   0.367571
    16  H    0.009380  -0.011928  -0.021121   0.696115  -0.036195  -0.007219
    17  H   -0.011859   0.009377  -0.021156  -0.036195   0.695714  -0.007213
    18  C    0.000400   0.000393   0.367571  -0.007219  -0.007213   4.743304
    19  H    0.007785  -0.001994   0.371850   0.009370  -0.011918  -0.021456
    20  H   -0.002007   0.007780   0.371701  -0.011891   0.009372  -0.021491
    21  C    0.000003   0.000003  -0.044423   0.000396   0.000393   0.367452
    22  H    0.000014  -0.000040  -0.020886   0.007788  -0.001992   0.372077
    23  H   -0.000040   0.000014  -0.020978  -0.002003   0.007779   0.371838
    24  C    0.000000   0.000000   0.008200   0.000004   0.000002  -0.043854
    25  H   -0.000012   0.000005  -0.007023   0.000014  -0.000040  -0.020842
    26  H    0.000005  -0.000012  -0.007195  -0.000039   0.000014  -0.021318
    27  C    0.000000   0.000000  -0.000437   0.000000   0.000000   0.008241
    28  H    0.000000   0.000000   0.000465  -0.000012   0.000005  -0.007373
    29  H    0.000000   0.000000   0.000409   0.000005  -0.000012  -0.007319
    30  C    0.000000   0.000000   0.000008   0.000000   0.000000  -0.000456
    31  H    0.000000   0.000000   0.000004   0.000000   0.000000   0.000349
    32  H    0.000000   0.000000  -0.000011   0.000000   0.000000   0.000469
    33  C    0.000000   0.000000   0.000000   0.000000   0.000000   0.000004
    34  H    0.000000   0.000000   0.000000   0.000000   0.000000   0.000001
    35  H    0.000000   0.000000   0.000000   0.000000   0.000000   0.000000
    36  H    0.000000   0.000000   0.000000   0.000000   0.000000   0.000005
              19         20         21         22         23         24
     1  C    0.000000   0.000000   0.000000   0.000000   0.000000   0.000000
     2  C    0.000003   0.000003   0.000000   0.000000   0.000000   0.000000
     3  H    0.000000   0.000000   0.000000   0.000000   0.000000   0.000000
     4  H    0.000000   0.000000   0.000000   0.000000   0.000000   0.000000
     5  H    0.000000   0.000000   0.000000   0.000000   0.000000   0.000000
     6  C    0.000376   0.000385   0.000008   0.000003   0.000004   0.000000
     7  H   -0.000013   0.000005   0.000000   0.000000   0.000000   0.000000
     8  H    0.000005  -0.000012   0.000000   0.000000   0.000000   0.000000
     9  C   -0.007110  -0.007104  -0.000460   0.000389   0.000390   0.000008
    10  H    0.000014  -0.000040   0.000000  -0.000012   0.000005   0.000000
    11  H   -0.000040   0.000014   0.000000   0.000005  -0.000012   0.000000
    12  C   -0.021314  -0.021262   0.008402  -0.007179  -0.007092  -0.000448
    13  H    0.007785  -0.002007   0.000003   0.000014  -0.000040   0.000000
    14  H   -0.001994   0.007780   0.000003  -0.000040   0.000014   0.000000
    15  C    0.371850   0.371701  -0.044423  -0.020886  -0.020978   0.008200
    16  H    0.009370  -0.011891   0.000396   0.007788  -0.002003   0.000004
    17  H   -0.011918   0.009372   0.000393  -0.001992   0.007779   0.000002
    18  C   -0.021456  -0.021491   0.367452   0.372077   0.371838  -0.043854
    19  H    0.695723  -0.036168  -0.007220   0.009359  -0.011851   0.000404
    20  H   -0.036168   0.696128  -0.007159  -0.011918   0.009353   0.000370
    21  C   -0.007220  -0.007159   4.745964  -0.021950  -0.021561   0.366290
    22  H    0.009359  -0.011918  -0.021950   0.695105  -0.036040  -0.007012
    23  H   -0.011851   0.009353  -0.021561  -0.036040   0.694409  -0.006865
    24  C    0.000404   0.000370   0.366290  -0.007012  -0.006865   4.777018
    25  H    0.007768  -0.002000   0.372587   0.009327  -0.011908  -0.022438
    26  H   -0.001990   0.007748   0.371157  -0.011813   0.009355  -0.022234
    27  C    0.000002   0.000004  -0.044040   0.000296   0.000347   0.387052
    28  H    0.000012  -0.000041  -0.017271   0.007694  -0.001987   0.370740
    29  H   -0.000036   0.000010  -0.022472  -0.001995   0.007370   0.373298
    30  C    0.000000   0.000000   0.008421   0.000009  -0.000002  -0.062443
    31  H   -0.000012   0.000005  -0.005376   0.000016  -0.000030  -0.025842
    32  H    0.000005  -0.000012  -0.011091  -0.000047   0.000005  -0.018447
    33  C    0.000000   0.000000  -0.000224   0.000001  -0.000006  -0.002125
    34  H    0.000000   0.000000  -0.000074   0.000000   0.000000   0.000133
    35  H    0.000000   0.000000   0.000020   0.000000   0.000000  -0.000296
    36  H    0.000000   0.000000   0.000056  -0.000008   0.000003  -0.004539
              25         26         27         28         29         30
     1  C    0.000000   0.000000   0.000000   0.000000   0.000000   0.000000
     2  C    0.000000   0.000000   0.000000   0.000000   0.000000   0.000000
     3  H    0.000000   0.000000   0.000000   0.000000   0.000000   0.000000
     4  H    0.000000   0.000000   0.000000   0.000000   0.000000   0.000000
     5  H    0.000000   0.000000   0.000000   0.000000   0.000000   0.000000
     6  C    0.000000   0.000000   0.000000   0.000000   0.000000   0.000000
     7  H    0.000000   0.000000   0.000000   0.000000   0.000000   0.000000
     8  H    0.000000   0.000000   0.000000   0.000000   0.000000   0.000000
     9  C    0.000003   0.000002   0.000000   0.000000   0.000000   0.000000
    10  H    0.000000   0.000000   0.000000   0.000000   0.000000   0.000000
    11  H    0.000000   0.000000   0.000000   0.000000   0.000000   0.000000
    12  C    0.000381   0.000390   0.000007   0.000000  -0.000003   0.000000
    13  H   -0.000012   0.000005   0.000000   0.000000   0.000000   0.000000
    14  H    0.000005  -0.000012   0.000000   0.000000   0.000000   0.000000
    15  C   -0.007023  -0.007195  -0.000437   0.000465   0.000409   0.000008
    16  H    0.000014  -0.000039   0.000000  -0.000012   0.000005   0.000000
    17  H   -0.000040   0.000014   0.000000   0.000005  -0.000012   0.000000
    18  C   -0.020842  -0.021318   0.008241  -0.007373  -0.007319  -0.000456
    19  H    0.007768  -0.001990   0.000002   0.000012  -0.000036   0.000000
    20  H   -0.002000   0.007748   0.000004  -0.000041   0.000010   0.000000
    21  C    0.372587   0.371157  -0.044040  -0.017271  -0.022472   0.008421
    22  H    0.009327  -0.011813   0.000296   0.007694  -0.001995   0.000009
    23  H   -0.011908   0.009355   0.000347  -0.001987   0.007370  -0.000002
    24  C   -0.022438  -0.022234   0.387052   0.370740   0.373298  -0.062443
    25  H    0.693866  -0.036175  -0.007012   0.009273  -0.011771   0.000200
    26  H   -0.036175   0.695929  -0.006156  -0.012019   0.009357   0.000602
    27  C   -0.007012  -0.006156   4.722801  -0.025296  -0.033287   0.363748
    28  H    0.009273  -0.012019  -0.025296   0.691594  -0.036656  -0.006534
    29  H   -0.011771   0.009357  -0.033287  -0.036656   0.688103   0.006492
    30  C    0.000200   0.000602   0.363748  -0.006534   0.006492   4.742659
    31  H    0.007524  -0.002073   0.377854   0.009267  -0.011351  -0.024466
    32  H   -0.001868   0.008366   0.354748  -0.011473   0.010093  -0.010955
    33  C    0.000054  -0.000023  -0.050328   0.000016   0.002184   0.703338
    34  H   -0.000022   0.000008  -0.025042   0.000017   0.000374  -0.019225
    35  H    0.000001  -0.000001   0.010936   0.000046  -0.000208  -0.011107
    36  H    0.000011  -0.000018  -0.057563   0.005709  -0.001121   0.396590
              31         32         33         34         35         36
     1  C    0.000000   0.000000   0.000000   0.000000   0.000000   0.000000
     2  C    0.000000   0.000000   0.000000   0.000000   0.000000   0.000000
     3  H    0.000000   0.000000   0.000000   0.000000   0.000000   0.000000
     4  H    0.000000   0.000000   0.000000   0.000000   0.000000   0.000000
     5  H    0.000000   0.000000   0.000000   0.000000   0.000000   0.000000
     6  C    0.000000   0.000000   0.000000   0.000000   0.000000   0.000000
     7  H    0.000000   0.000000   0.000000   0.000000   0.000000   0.000000
     8  H    0.000000   0.000000   0.000000   0.000000   0.000000   0.000000
     9  C    0.000000   0.000000   0.000000   0.000000   0.000000   0.000000
    10  H    0.000000   0.000000   0.000000   0.000000   0.000000   0.000000
    11  H    0.000000   0.000000   0.000000   0.000000   0.000000   0.000000
    12  C    0.000000   0.000000   0.000000   0.000000   0.000000   0.000000
    13  H    0.000000   0.000000   0.000000   0.000000   0.000000   0.000000
    14  H    0.000000   0.000000   0.000000   0.000000   0.000000   0.000000
    15  C    0.000004  -0.000011   0.000000   0.000000   0.000000   0.000000
    16  H    0.000000   0.000000   0.000000   0.000000   0.000000   0.000000
    17  H    0.000000   0.000000   0.000000   0.000000   0.000000   0.000000
    18  C    0.000349   0.000469   0.000004   0.000001   0.000000   0.000005
    19  H   -0.000012   0.000005   0.000000   0.000000   0.000000   0.000000
    20  H    0.000005  -0.000012   0.000000   0.000000   0.000000   0.000000
    21  C   -0.005376  -0.011091  -0.000224  -0.000074   0.000020   0.000056
    22  H    0.000016  -0.000047   0.000001   0.000000   0.000000  -0.000008
    23  H   -0.000030   0.000005  -0.000006   0.000000   0.000000   0.000003
    24  C   -0.025842  -0.018447  -0.002125   0.000133  -0.000296  -0.004539
    25  H    0.007524  -0.001868   0.000054  -0.000022   0.000001   0.000011
    26  H   -0.002073   0.008366  -0.000023   0.000008  -0.000001  -0.000018
    27  C    0.377854   0.354748  -0.050328  -0.025042   0.010936  -0.057563
    28  H    0.009267  -0.011473   0.000016   0.000017   0.000046   0.005709
    29  H   -0.011351   0.010093   0.002184   0.000374  -0.000208  -0.001121
    30  C   -0.024466  -0.010955   0.703338  -0.019225  -0.011107   0.396590
    31  H    0.684824  -0.033863  -0.012938   0.008209   0.000063   0.008283
    32  H   -0.033863   0.682936   0.002555   0.000513  -0.000546  -0.006001
    33  C   -0.012938   0.002555   4.706912   0.389276   0.376698  -0.035391
    34  H    0.008209   0.000513   0.389276   0.653261  -0.051063   0.009623
    35  H    0.000063  -0.000546   0.376698  -0.051063   0.653039  -0.017319
    36  H    0.008283  -0.006001  -0.035391   0.009623  -0.017319   0.675344
 Mulliken charges:
               1
     1  C   -0.053476
     2  C   -0.078593
     3  H    0.034981
     4  H    0.032827
     5  H    0.032766
     6  C   -0.057596
     7  H    0.026816
     8  H    0.026788
     9  C   -0.036641
    10  H    0.019300
    11  H    0.019397
    12  C   -0.037096
    13  H    0.018203
    14  H    0.018131
    15  C   -0.037723
    16  H    0.018258
    17  H    0.018495
    18  C   -0.036107
    19  H    0.018445
    20  H    0.018228
    21  C   -0.037831
    22  H    0.018808
    23  H    0.019501
    24  C   -0.066977
    25  H    0.020098
    26  H    0.018134
    27  C    0.023122
    28  H    0.023825
    29  H    0.028536
    30  C   -0.086879
    31  H    0.019554
    32  H    0.034624
    33  C   -0.080001
    34  H    0.034012
    35  H    0.039738
    36  H    0.026336
 Sum of Mulliken charges =   0.00000
 Mulliken charges with hydrogens summed into heavy atoms:
               1
     1  C    0.047098
     2  C   -0.024989
     6  C   -0.018899
     9  C   -0.000307
    12  C   -0.000343
    15  C   -0.001050
    18  C    0.002202
    21  C    0.000400
    24  C   -0.014615
    27  C    0.077300
    30  C   -0.060544
    33  C   -0.006252
 Electronic spatial extent (au):  <R**2>=           6921.0913
 Charge=              0.0000 electrons
 Dipole moment (field-independent basis, Debye):
    X=             -0.4498    Y=              0.1168    Z=             -0.1641  Tot=              0.4928
 Quadrupole moment (field-independent basis, Debye-Ang):
   XX=            -85.4990   YY=            -81.2565   ZZ=            -78.0328
   XY=             -0.6661   XZ=             -0.5005   YZ=              0.6643
 Traceless Quadrupole moment (field-independent basis, Debye-Ang):
   XX=             -3.9029   YY=              0.3396   ZZ=              3.5633
   XY=             -0.6661   XZ=             -0.5005   YZ=              0.6643
 Octapole moment (field-independent basis, Debye-Ang**2):
  XXX=            -24.4970  YYY=              0.8299  ZZZ=             -0.2672  XYY=             -2.8285
  XXY=             -4.2432  XXZ=             -0.0478  XZZ=              1.5304  YZZ=              0.5362
  YYZ=             -0.8096  XYZ=              4.9268
 Hexadecapole moment (field-independent basis, Debye-Ang**3):
 XXXX=          -9513.5468 YYYY=           -278.2286 ZZZZ=           -190.3809 XXXY=           -128.8942
 XXXZ=             22.5702 YYYX=              3.6876 YYYZ=             -0.3275 ZZZX=             -0.3662
 ZZZY=              2.7082 XXYY=          -1603.7988 XXZZ=          -1527.7610 YYZZ=            -73.2208
 XXYZ=             28.2862 YYXZ=             -5.1530 ZZXY=              5.5103
 N-N= 6.547476190068D+02 E-N=-2.395816460410D+03  KE= 4.650602557168D+02
   1 Symmetry operations used in ECPInt.
 ECPInt:  NShTT=   10440 NPrTT=   35208 LenC2=    8761 LenP2D=   21882.
 LDataN:  DoStor=T MaxTD1= 5 Len=  102
 Calling FoFJK, ICntrl=      2127 FMM=F ISym2X=0 I1Cent= 0 IOpClX= 0 NMat=1 NMatS=1 NMatT=0.
 ***** Axes restored to original set *****
 -------------------------------------------------------------------
 Center     Atomic                   Forces (Hartrees/Bohr)
 Number     Number              X              Y              Z
 -------------------------------------------------------------------
      1        6           0.005901039    0.000007377    0.008759131
      2        6          -0.015544994   -0.000015279   -0.013127171
      3        1           0.003364203   -0.000000740   -0.004686483
      4        1          -0.002699484    0.003584180   -0.002779048
      5        1          -0.002700018   -0.003592437   -0.002780704
      6        6           0.021468475    0.000036006    0.014429690
      7        1           0.003036422    0.003845437    0.004288268
      8        1           0.003048090   -0.003840416    0.004287555
      9        6          -0.021504928   -0.000059391   -0.014620816
     10        1          -0.003900175   -0.004382491   -0.002728001
     11        1          -0.003905295    0.004368735   -0.002738276
     12        6           0.021537131    0.000100176    0.014610417
     13        1           0.003872887    0.004298645    0.002626595
     14        1           0.003901471   -0.004278422    0.002630535
     15        6          -0.021498626   -0.000122497   -0.014516818
     16        1          -0.003899130   -0.004317494   -0.002620295
     17        1          -0.003912853    0.004278689   -0.002644964
     18        6           0.021087844    0.000231600    0.014695811
     19        1           0.003869740    0.004315691    0.002631360
     20        1           0.003922762   -0.004273547    0.002648679
     21        6          -0.021077293   -0.000533619   -0.013784188
     22        1          -0.003859552   -0.004318694   -0.002628482
     23        1          -0.003896791    0.004232255   -0.002648150
     24        6           0.019736191   -0.000748086    0.010412222
     25        1           0.003841307    0.004317911    0.002642227
     26        1           0.003982725   -0.004263430    0.002698112
     27        6          -0.018387177   -0.001224046   -0.007125783
     28        1          -0.003689493   -0.004033315   -0.002326926
     29        1          -0.003722244    0.003673852   -0.001409193
     30        6           0.008873567    0.015691317    0.010079750
     31        1           0.001686109    0.004333326    0.002686409
     32        1           0.005306038   -0.005227194    0.000272950
     33        6           0.001038973   -0.012883738   -0.008453850
     34        1           0.004079959    0.005755417    0.001686402
     35        1          -0.005647803    0.001015732    0.002585418
     36        1          -0.003709075   -0.005971510   -0.003052386
 -------------------------------------------------------------------
 Cartesian Forces:  Max     0.021537131 RMS     0.008070008
 -----------------------------------------------------------------------------------------------
                       Internal Coordinate Forces (Hartree/Bohr or radian)
  Cent   Atom   N1       Length/X         N2         Alpha/Y        N3         Beta/Z          J
 -----------------------------------------------------------------------------------------------
      1  C 
      2  C        1   0.001487(     1)
      3  H        1   0.004779(     2)      2   0.006684(    36)
      4  H        1   0.005151(     3)      2   0.002067(    37)      3  -0.001093(    70)     0
      5  H        1   0.005159(     4)      2   0.002064(    38)      3   0.001086(    71)     0
      6  C        2  -0.002993(     5)      1   0.010383(    39)      3  -0.000014(    72)     0
      7  H        2   0.006003(     6)      1   0.005087(    40)      3  -0.001129(    73)     0
      8  H        2   0.006005(     7)      1   0.005083(    41)      3   0.001147(    74)     0
      9  C        6  -0.002948(     8)      2   0.011597(    42)      1  -0.000036(    75)     0
     10  H        6   0.006351(     9)      2   0.001109(    43)      1  -0.002175(    76)     0
     11  H        6   0.006349(    10)      2   0.001105(    44)      1   0.002178(    77)     0
     12  C        9  -0.002910(    11)      6   0.011679(    45)      2  -0.000025(    78)     0
     13  H        9   0.006235(    12)      6   0.001220(    46)      2  -0.002100(    79)     0
     14  H        9   0.006239(    13)      6   0.001203(    47)      2   0.002125(    80)     0
     15  C       12  -0.002929(    14)      9   0.011674(    48)      6  -0.000045(    81)     0
     16  H       12   0.006259(    15)      9   0.001270(    49)      6  -0.002103(    82)     0
     17  H       12   0.006252(    16)      9   0.001260(    50)      6   0.002104(    83)     0
     18  C       15  -0.002933(    17)     12   0.011596(    51)      9  -0.000041(    84)     0
     19  H       15   0.006245(    18)     12   0.001240(    52)      9  -0.002104(    85)     0
     20  H       15   0.006255(    19)     12   0.001212(    53)      9   0.002139(    86)     0
     21  C       18  -0.003109(    20)     15   0.011396(    54)     12  -0.000035(    87)     0
     22  H       18   0.006240(    21)     15   0.001209(    55)     12  -0.002122(    88)     0
     23  H       18   0.006211(    22)     15   0.001245(    56)     12   0.002114(    89)     0
     24  C       21  -0.003219(    23)     18   0.010831(    57)     15  -0.000205(    90)     0
     25  H       21   0.006233(    24)     18   0.001292(    58)     15  -0.002083(    91)     0
     26  H       21   0.006297(    25)     18   0.001270(    59)     15   0.002223(    92)     0
     27  C       24  -0.001336(    26)     21   0.010846(    60)     18   0.001218(    93)     0
     28  H       24   0.005826(    27)     21   0.001439(    61)     18  -0.001823(    94)     0
     29  H       24   0.005260(    28)     21   0.002595(    62)     18   0.000629(    95)     0
     30  C       27  -0.003317(    29)     24   0.006862(    63)     21  -0.004898(    96)     0
     31  H       27   0.005201(    30)     24   0.002134(    64)     21   0.001663(    97)     0
     32  H       27   0.006875(    31)     24  -0.004566(    65)     21   0.003610(    98)     0
     33  C       30  -0.006598(    32)     27   0.004664(    66)     24   0.001497(    99)     0
     34  H       33   0.007246(    33)     30  -0.000651(    67)     27  -0.000166(   100)     0
     35  H       33   0.006112(    34)     30   0.003053(    68)     27  -0.000364(   101)     0
     36  H       30   0.007506(    35)     27  -0.002277(    69)     24  -0.001976(   102)     0
 -----------------------------------------------------------------------------------------------
 Internal  Forces:  Max     0.011678702 RMS     0.004839370

 GradGradGradGradGradGradGradGradGradGradGradGradGradGradGradGradGradGrad
 Berny optimization.
 Search for a local minimum.
 Step number   1 out of a maximum of  200
 All quantities printed in internal units (Hartrees-Bohrs-Radians)
 Second derivative matrix not updated -- first step.
 ITU=  0
     Eigenvalues ---    0.01014   0.01016   0.01028   0.01028   0.01028
     Eigenvalues ---    0.01029   0.01039   0.01072   0.01311   0.01977
     Eigenvalues ---    0.08427   0.13370   0.15083   0.15094   0.15113
     Eigenvalues ---    0.15114   0.15115   0.15120   0.15130   0.15296
     Eigenvalues ---    0.15819   0.16000   0.17237   0.17291   0.17292
     Eigenvalues ---    0.17292   0.17293   0.17293   0.17306   0.17324
     Eigenvalues ---    0.17543   0.19879   0.20946   0.23861   0.29418
     Eigenvalues ---    0.29426   0.29460   0.29461   0.29462   0.29462
     Eigenvalues ---    0.29463   0.29566   0.30331   0.32194   0.33834
     Eigenvalues ---    0.33966   0.33967   0.34027   0.34033   0.34033
     Eigenvalues ---    0.34036   0.34036   0.34037   0.34037   0.34037
     Eigenvalues ---    0.34037   0.34037   0.34037   0.34037   0.34037
     Eigenvalues ---    0.34064   0.34104   0.34104   0.34276   0.34277
     Eigenvalues ---    0.34299   0.35012   0.35313   0.35332   0.36582
     Eigenvalues ---    0.36627   0.36659   0.36681   0.36682   0.36682
     Eigenvalues ---    0.36687   0.36694   0.37162   0.39241   0.39324
     Eigenvalues ---    0.39326   0.39326   0.39328   0.39330   0.39338
     Eigenvalues ---    0.39352   0.39417   0.39725   0.42862   0.42864
     Eigenvalues ---    0.42864   0.42864   0.42874   0.42884   0.42897
     Eigenvalues ---    0.42927   0.43148   0.48000   0.53119   0.57454
     Eigenvalues --- 1000.000001000.00000
 RFO step:  Lambda=-7.58191487D-03 EMin= 1.01436641D-02
 Linear search not attempted -- first point.
 Variable       Old X    -DE/DX   Delta X   Delta X   Delta X     New X
                                 (Linear)    (Quad)   (Total)
    B1        2.87308   0.00149   0.00000   0.00478   0.00478   2.87787
    B2        2.06829   0.00478   0.00000   0.01363   0.01363   2.08192
    A2        1.92443   0.00668   0.00000   0.03097   0.03097   1.95540
    B3        2.06866   0.00515   0.00000   0.01470   0.01470   2.08337
    A3        1.93731   0.00207   0.00000   0.00021   0.00021   1.93752
    D3        4.19337  -0.00109   0.00000  -0.00963  -0.00963   4.18373
    B4        2.06865   0.00516   0.00000   0.01473   0.01473   2.08337
    A4        1.93737   0.00206   0.00000   0.00014   0.00014   1.93751
    D4        2.08990   0.00109   0.00000   0.00945   0.00945   2.09935
    B5        2.88837  -0.00299   0.00000  -0.00987  -0.00987   2.87850
    A5        1.94593   0.01038   0.00000   0.02924   0.02924   1.97517
    D5        3.14200  -0.00001   0.00000   0.00035   0.00035   3.14235
    B6        2.07156   0.00600   0.00000   0.01722   0.01722   2.08877
    A6        1.90492   0.00509   0.00000   0.01090   0.01090   1.91582
    D6        1.02042  -0.00113   0.00000  -0.00617  -0.00617   1.01426
    B7        2.07156   0.00600   0.00000   0.01722   0.01722   2.08878
    A7        1.90497   0.00508   0.00000   0.01091   0.01091   1.91587
    D7        5.26348   0.00115   0.00000   0.00691   0.00691   5.27039
    B8        2.89047  -0.00295   0.00000  -0.00975  -0.00975   2.88071
    A8        1.94309   0.01160   0.00000   0.04054   0.04054   1.98363
    D8        3.14277  -0.00004   0.00000   0.00011   0.00011   3.14288
    B9        2.07275   0.00635   0.00000   0.01825   0.01825   2.09100
    A9        1.91232   0.00111   0.00000  -0.00617  -0.00617   1.90615
    D9        1.02439  -0.00218   0.00000  -0.01485  -0.01485   1.00954
   B10        2.07275   0.00635   0.00000   0.01825   0.01825   2.09099
   A10        1.91235   0.00110   0.00000  -0.00615  -0.00615   1.90621
   D10        5.26097   0.00218   0.00000   0.01511   0.01511   5.27608
   B11        2.89051  -0.00291   0.00000  -0.00963  -0.00963   2.88088
   A11        1.94306   0.01168   0.00000   0.04063   0.04063   1.98369
   D11        3.14246  -0.00002   0.00000   0.00031   0.00031   3.14277
   B12        2.07269   0.00623   0.00000   0.01792   0.01792   2.09061
   A12        1.91222   0.00122   0.00000  -0.00574  -0.00574   1.90648
   D12        1.02436  -0.00210   0.00000  -0.01441  -0.01441   1.00996
[...]
     4  H   -0.009876   0.008656   0.000444  -0.001920   0.007734  -0.000007
     5  H    0.008653  -0.009903   0.000441   0.007729  -0.001915  -0.000007
     6  C   -0.024667  -0.024713   0.366748   0.372507   0.372526  -0.039125
     7  H    0.692860  -0.036044  -0.007331   0.009829  -0.012024   0.000331
     8  H   -0.036044   0.692952  -0.007318  -0.012002   0.009828   0.000334
     9  C   -0.007331  -0.007318   4.747579  -0.021972  -0.022008   0.368677
    10  H    0.009829  -0.012002  -0.021972   0.700063  -0.038214  -0.007501
    11  H   -0.012024   0.009828  -0.022008  -0.038214   0.699941  -0.007486
    12  C    0.000331   0.000334   0.368677  -0.007501  -0.007486   4.743242
    13  H    0.008378  -0.002091   0.370148   0.009714  -0.012029  -0.022384
    14  H   -0.002085   0.008374   0.370073  -0.012064   0.009715  -0.022381
    15  C    0.000004   0.000004  -0.040775   0.000401   0.000405   0.372373
    16  H    0.000020  -0.000042  -0.022833   0.008134  -0.002031   0.369815
    17  H   -0.000042   0.000020  -0.022836  -0.002024   0.008134   0.369973
    18  C    0.000000   0.000000   0.007921   0.000001   0.000001  -0.042107
    19  H   -0.000011   0.000004  -0.007124   0.000018  -0.000041  -0.022581
    20  H    0.000004  -0.000011  -0.007156  -0.000041   0.000018  -0.022515
    21  C    0.000000   0.000000  -0.000406   0.000000   0.000000   0.007959
    22  H    0.000000   0.000000   0.000360  -0.000011   0.000005  -0.007195
    23  H    0.000000   0.000000   0.000351   0.000005  -0.000011  -0.007139
    24  C    0.000000   0.000000   0.000006   0.000000   0.000000  -0.000395
    25  H    0.000000   0.000000   0.000003   0.000000   0.000000   0.000350
    26  H    0.000000   0.000000   0.000003   0.000000   0.000000   0.000352
    27  C    0.000000   0.000000   0.000000   0.000000   0.000000   0.000006
    28  H    0.000000   0.000000   0.000000   0.000000   0.000000   0.000001
    29  H    0.000000   0.000000   0.000000   0.000000   0.000000  -0.000002
    30  C    0.000000   0.000000   0.000000   0.000000   0.000000   0.000000
    31  H    0.000000   0.000000   0.000000   0.000000   0.000000   0.000000
    32  H    0.000000   0.000000   0.000000   0.000000   0.000000   0.000000
    33  C    0.000000   0.000000   0.000000   0.000000   0.000000   0.000000
    34  H    0.000000   0.000000   0.000000   0.000000   0.000000   0.000000
    35  H    0.000000   0.000000   0.000000   0.000000   0.000000   0.000000
    36  H    0.000000   0.000000   0.000000   0.000000   0.000000   0.000000
              13         14         15         16         17         18
     1  C    0.000274   0.000269   0.000007   0.000007   0.000007   0.000000
     2  C   -0.006699  -0.006707  -0.000376   0.000295   0.000292   0.000006
     3  H    0.000008   0.000008   0.000000   0.000000   0.000000   0.000000
     4  H   -0.000051   0.000025   0.000000   0.000003  -0.000009   0.000000
     5  H    0.000025  -0.000050   0.000000  -0.000009   0.000003   0.000000
     6  C   -0.023537  -0.023507   0.007662  -0.007076  -0.007078  -0.000401
     7  H    0.008378  -0.002085   0.000004   0.000020  -0.000042   0.000000
     8  H   -0.002091   0.008374   0.000004  -0.000042   0.000020   0.000000
     9  C    0.370148   0.370073  -0.040775  -0.022833  -0.022836   0.007921
    10  H    0.009714  -0.012064   0.000401   0.008134  -0.002024   0.000001
    11  H   -0.012029   0.009715   0.000405  -0.002031   0.008134   0.000001
    12  C   -0.022384  -0.022381   0.372373   0.369815   0.369973  -0.042107
    13  H    0.699448  -0.037464  -0.007286   0.009663  -0.012034   0.000362
    14  H   -0.037464   0.699607  -0.007284  -0.012017   0.009660   0.000366
    15  C   -0.007286  -0.007284   4.739336  -0.022344  -0.022410   0.372885
    16  H    0.009663  -0.012017  -0.022344   0.699281  -0.037351  -0.007274
    17  H   -0.012034   0.009660  -0.022410  -0.037351   0.698905  -0.007231
    18  C    0.000362   0.000366   0.372885  -0.007274  -0.007231   4.739543
    19  H    0.008185  -0.002029   0.369961   0.009652  -0.012020  -0.022675
    20  H   -0.002023   0.008187   0.369855  -0.012059   0.009654  -0.022751
    21  C    0.000003   0.000003  -0.041009   0.000358   0.000366   0.371291
    22  H    0.000019  -0.000041  -0.022151   0.008181  -0.002024   0.369922
    23  H   -0.000040   0.000019  -0.022156  -0.002016   0.008169   0.369955
    24  C    0.000000   0.000000   0.007718   0.000004   0.000003  -0.040133
    25  H   -0.000011   0.000005  -0.007059   0.000019  -0.000041  -0.022279
    26  H    0.000005  -0.000011  -0.007231  -0.000040   0.000019  -0.022389
    27  C    0.000000   0.000000  -0.000379   0.000000   0.000000   0.007715
    28  H    0.000000   0.000000   0.000418  -0.000011   0.000005  -0.007594
    29  H    0.000000   0.000000   0.000377   0.000005  -0.000011  -0.007304
    30  C    0.000000   0.000000   0.000006   0.000000   0.000000  -0.000398
    31  H    0.000000   0.000000   0.000005   0.000000   0.000000   0.000253
    32  H    0.000000   0.000000  -0.000010   0.000000   0.000000   0.000482
    33  C    0.000000   0.000000   0.000000   0.000000   0.000000   0.000005
    34  H    0.000000   0.000000   0.000000   0.000000   0.000000   0.000001
    35  H    0.000000   0.000000   0.000000   0.000000   0.000000   0.000000
    36  H    0.000000   0.000000   0.000000   0.000000   0.000000   0.000000
              19         20         21         22         23         24
     1  C    0.000000   0.000000   0.000000   0.000000   0.000000   0.000000
     2  C    0.000003   0.000003   0.000000   0.000000   0.000000   0.000000
     3  H    0.000000   0.000000   0.000000   0.000000   0.000000   0.000000
     4  H    0.000000   0.000000   0.000000   0.000000   0.000000   0.000000
     5  H    0.000000   0.000000   0.000000   0.000000   0.000000   0.000000
     6  C    0.000350   0.000349   0.000006   0.000003   0.000003   0.000000
     7  H   -0.000011   0.000004   0.000000   0.000000   0.000000   0.000000
     8  H    0.000004  -0.000011   0.000000   0.000000   0.000000   0.000000
     9  C   -0.007124  -0.007156  -0.000406   0.000360   0.000351   0.000006
    10  H    0.000018  -0.000041   0.000000  -0.000011   0.000005   0.000000
    11  H   -0.000041   0.000018   0.000000   0.000005  -0.000011   0.000000
    12  C   -0.022581  -0.022515   0.007959  -0.007195  -0.007139  -0.000395
    13  H    0.008185  -0.002023   0.000003   0.000019  -0.000040   0.000000
    14  H   -0.002029   0.008187   0.000003  -0.000041   0.000019   0.000000
    15  C    0.369961   0.369855  -0.041009  -0.022151  -0.022156   0.007718
    16  H    0.009652  -0.012059   0.000358   0.008181  -0.002016   0.000004
    17  H   -0.012020   0.009654   0.000366  -0.002024   0.008169   0.000003
    18  C   -0.022675  -0.022751   0.371291   0.369922   0.369955  -0.040133
    19  H    0.698974  -0.037346  -0.007264   0.009639  -0.012028   0.000368
    20  H   -0.037346   0.699375  -0.007197  -0.012010   0.009628   0.000348
    21  C   -0.007264  -0.007197   4.744339  -0.022896  -0.022614   0.367771
    22  H    0.009639  -0.012010  -0.022896   0.698541  -0.037207  -0.007120
    23  H   -0.012028   0.009628  -0.022614  -0.037207   0.697528  -0.006942
    24  C    0.000368   0.000348   0.367771  -0.007120  -0.006942   4.782083
    25  H    0.008148  -0.002032   0.370701   0.009619  -0.012030  -0.023701
    26  H   -0.002008   0.008157   0.369229  -0.011968   0.009623  -0.022924
    27  C    0.000002   0.000003  -0.040187   0.000279   0.000309   0.386362
    28  H    0.000017  -0.000043  -0.018425   0.008075  -0.001995   0.369472
    29  H   -0.000036   0.000015  -0.023193  -0.002003   0.007710   0.371576
    30  C    0.000000   0.000000   0.007865   0.000010  -0.000002  -0.057993
    31  H   -0.000011   0.000004  -0.005212   0.000020  -0.000029  -0.026094
    32  H    0.000005  -0.000011  -0.011254  -0.000052   0.000012  -0.020968
    33  C    0.000000   0.000000  -0.000260   0.000001  -0.000004  -0.000651
    34  H    0.000000   0.000000  -0.000057   0.000000   0.000000   0.000176
    35  H    0.000000   0.000000   0.000017   0.000000   0.000000  -0.000288
    36  H    0.000000   0.000000   0.000141  -0.000007   0.000003  -0.005364
              25         26         27         28         29         30
     1  C    0.000000   0.000000   0.000000   0.000000   0.000000   0.000000
     2  C    0.000000   0.000000   0.000000   0.000000   0.000000   0.000000
     3  H    0.000000   0.000000   0.000000   0.000000   0.000000   0.000000
     4  H    0.000000   0.000000   0.000000   0.000000   0.000000   0.000000
     5  H    0.000000   0.000000   0.000000   0.000000   0.000000   0.000000
     6  C    0.000000   0.000000   0.000000   0.000000   0.000000   0.000000
     7  H    0.000000   0.000000   0.000000   0.000000   0.000000   0.000000
     8  H    0.000000   0.000000   0.000000   0.000000   0.000000   0.000000
     9  C    0.000003   0.000003   0.000000   0.000000   0.000000   0.000000
    10  H    0.000000   0.000000   0.000000   0.000000   0.000000   0.000000
    11  H    0.000000   0.000000   0.000000   0.000000   0.000000   0.000000
    12  C    0.000350   0.000352   0.000006   0.000001  -0.000002   0.000000
    13  H   -0.000011   0.000005   0.000000   0.000000   0.000000   0.000000
    14  H    0.000005  -0.000011   0.000000   0.000000   0.000000   0.000000
    15  C   -0.007059  -0.007231  -0.000379   0.000418   0.000377   0.000006
    16  H    0.000019  -0.000040   0.000000  -0.000011   0.000005   0.000000
    17  H   -0.000041   0.000019   0.000000   0.000005  -0.000011   0.000000
    18  C   -0.022279  -0.022389   0.007715  -0.007594  -0.007304  -0.000398
    19  H    0.008148  -0.002008   0.000002   0.000017  -0.000036   0.000000
    20  H   -0.002032   0.008157   0.000003  -0.000043   0.000015   0.000000
    21  C    0.370701   0.369229  -0.040187  -0.018425  -0.023193   0.007865
    22  H    0.009619  -0.011968   0.000279   0.008075  -0.002003   0.000010
    23  H   -0.012030   0.009623   0.000309  -0.001995   0.007710  -0.000002
    24  C   -0.023701  -0.022924   0.386362   0.369472   0.371576  -0.057993
    25  H    0.697425  -0.037348  -0.006713   0.009542  -0.011810   0.000217
    26  H   -0.037348   0.699005  -0.006763  -0.012156   0.009557   0.000573
    27  C   -0.006713  -0.006763   4.731234  -0.026341  -0.033960   0.366703
    28  H    0.009542  -0.012156  -0.026341   0.693707  -0.037389  -0.007117
    29  H   -0.011810   0.009557  -0.033960  -0.037389   0.690973   0.006139
    30  C    0.000217   0.000573   0.366703  -0.007117   0.006139   4.733197
    31  H    0.007619  -0.001975   0.374229   0.009295  -0.011696  -0.024874
    32  H   -0.001970   0.009078   0.353802  -0.011199   0.010352  -0.010853
    33  C    0.000046  -0.000021  -0.050409   0.000064   0.001910   0.705787
    34  H   -0.000018   0.000007  -0.025207   0.000021   0.000275  -0.018154
    35  H    0.000001  -0.000001   0.010802   0.000041  -0.000169  -0.011210
    36  H    0.000016  -0.000022  -0.059157   0.006538  -0.001247   0.395063
              31         32         33         34         35         36
     1  C    0.000000   0.000000   0.000000   0.000000   0.000000   0.000000
     2  C    0.000000   0.000000   0.000000   0.000000   0.000000   0.000000
     3  H    0.000000   0.000000   0.000000   0.000000   0.000000   0.000000
     4  H    0.000000   0.000000   0.000000   0.000000   0.000000   0.000000
     5  H    0.000000   0.000000   0.000000   0.000000   0.000000   0.000000
     6  C    0.000000   0.000000   0.000000   0.000000   0.000000   0.000000
     7  H    0.000000   0.000000   0.000000   0.000000   0.000000   0.000000
     8  H    0.000000   0.000000   0.000000   0.000000   0.000000   0.000000
     9  C    0.000000   0.000000   0.000000   0.000000   0.000000   0.000000
    10  H    0.000000   0.000000   0.000000   0.000000   0.000000   0.000000
    11  H    0.000000   0.000000   0.000000   0.000000   0.000000   0.000000
    12  C    0.000000   0.000000   0.000000   0.000000   0.000000   0.000000
    13  H    0.000000   0.000000   0.000000   0.000000   0.000000   0.000000
    14  H    0.000000   0.000000   0.000000   0.000000   0.000000   0.000000
    15  C    0.000005  -0.000010   0.000000   0.000000   0.000000   0.000000
    16  H    0.000000   0.000000   0.000000   0.000000   0.000000   0.000000
    17  H    0.000000   0.000000   0.000000   0.000000   0.000000   0.000000
    18  C    0.000253   0.000482   0.000005   0.000001   0.000000   0.000000
    19  H   -0.000011   0.000005   0.000000   0.000000   0.000000   0.000000
    20  H    0.000004  -0.000011   0.000000   0.000000   0.000000   0.000000
    21  C   -0.005212  -0.011254  -0.000260  -0.000057   0.000017   0.000141
    22  H    0.000020  -0.000052   0.000001   0.000000   0.000000  -0.000007
    23  H   -0.000029   0.000012  -0.000004   0.000000   0.000000   0.000003
    24  C   -0.026094  -0.020968  -0.000651   0.000176  -0.000288  -0.005364
    25  H    0.007619  -0.001970   0.000046  -0.000018   0.000001   0.000016
    26  H   -0.001975   0.009078  -0.000021   0.000007  -0.000001  -0.000022
    27  C    0.374229   0.353802  -0.050409  -0.025207   0.010802  -0.059157
    28  H    0.009295  -0.011199   0.000064   0.000021   0.000041   0.006538
    29  H   -0.011696   0.010352   0.001910   0.000275  -0.000169  -0.001247
    30  C   -0.024874  -0.010853   0.705787  -0.018154  -0.011210   0.395063
    31  H    0.686077  -0.033506  -0.012913   0.008986  -0.000012   0.008678
    32  H   -0.033506   0.682069   0.001643   0.000454  -0.000499  -0.005566
    33  C   -0.012913   0.001643   4.716648   0.385428   0.376260  -0.036958
    34  H    0.008986   0.000454   0.385428   0.651873  -0.050299   0.009586
    35  H   -0.000012  -0.000499   0.376260  -0.050299   0.648722  -0.016905
    36  H    0.008678  -0.005566  -0.036958   0.009586  -0.016905   0.676902
 Mulliken charges:
               1
     1  C   -0.062161
     2  C   -0.077757
     3  H    0.039258
     4  H    0.035104
     5  H    0.035092
     6  C   -0.062589
     7  H    0.028179
     8  H    0.028124
     9  C   -0.039911
    10  H    0.020357
    11  H    0.020434
    12  C   -0.039880
    13  H    0.019418
    14  H    0.019329
    15  C   -0.040949
    16  H    0.019664
    17  H    0.019899
    18  C   -0.038171
    19  H    0.019847
    20  H    0.019594
    21  C   -0.040078
    22  H    0.020011
    23  H    0.020898
    24  C   -0.073316
    25  H    0.021302
    26  H    0.019249
    27  C    0.017668
    28  H    0.025074
    29  H    0.029933
    30  C   -0.084958
    31  H    0.021155
    32  H    0.037990
    33  C   -0.086576
    34  H    0.036929
    35  H    0.043541
    36  H    0.028297
 Sum of Mulliken charges =   0.00000
 Mulliken charges with hydrogens summed into heavy atoms:
               1
     1  C    0.047292
     2  C   -0.021454
     6  C   -0.021799
     9  C   -0.001164
    12  C   -0.000317
    15  C   -0.001507
    18  C    0.002738
    21  C    0.000474
    24  C   -0.018309
    27  C    0.076812
    30  C   -0.056661
    33  C   -0.006106
 Electronic spatial extent (au):  <R**2>=           7006.9555
 Charge=              0.0000 electrons
 Dipole moment (field-independent basis, Debye):
    X=             -0.4414    Y=              0.0892    Z=             -0.1373  Tot=              0.4708
 Quadrupole moment (field-independent basis, Debye-Ang):
   XX=            -84.3378   YY=            -81.3336   ZZ=            -78.7877
   XY=             -0.5978   XZ=             -0.2574   YZ=              0.8005
 Traceless Quadrupole moment (field-independent basis, Debye-Ang):
   XX=             -2.8514   YY=              0.1527   ZZ=              2.6987
   XY=             -0.5978   XZ=             -0.2574   YZ=              0.8005
 Octapole moment (field-independent basis, Debye-Ang**2):
  XXX=            -25.5920  YYY=              0.6273  ZZZ=             -0.2490  XYY=             -2.3124
  XXY=             -5.6099  XXZ=              2.2673  XZZ=              1.0913  YZZ=              0.5499
  YYZ=             -0.7811  XYZ=              5.3047
 Hexadecapole moment (field-independent basis, Debye-Ang**3):
 XXXX=          -9538.5533 YYYY=           -276.0414 ZZZZ=           -189.4072 XXXY=           -119.4443
 XXXZ=             40.5409 YYYX=              2.6730 YYYZ=              0.4329 ZZZX=             -0.3721
 ZZZY=              2.4524 XXYY=          -1624.4812 XXZZ=          -1563.6510 YYZZ=            -72.4186
 XXYZ=             32.3141 YYXZ=             -4.7893 ZZXY=              6.0175
 N-N= 6.528852974098D+02 E-N=-2.391848921268D+03  KE= 4.648805669656D+02
 1\1\GINC-NODE0009\POpt\RM06\def2SVP\C12H24\JGOODPAS\17-Oct-2017\1\\# O
 pt=(Z-mat,maxcycle=200) m06/def2svp Integral=SuperFineGrid\\C12H24\\0,
 1\C\C,1,B1\H,1,B2,2,A2\H,1,B3,2,A3,3,D3,0\H,1,B4,2,A4,3,D4,0\C,2,B5,1,
 A5,3,D5,0\H,2,B6,1,A6,3,D6,0\H,2,B7,1,A7,3,D7,0\C,6,B8,2,A8,1,D8,0\H,6
 ,B9,2,A9,1,D9,0\H,6,B10,2,A10,1,D10,0\C,9,B11,6,A11,2,D11,0\H,9,B12,6,
 A12,2,D12,0\H,9,B13,6,A13,2,D13,0\C,12,B14,9,A14,6,D14,0\H,12,B15,9,A1
 5,6,D15,0\H,12,B16,9,A16,6,D16,0\C,15,B17,12,A17,9,D17,0\H,15,B18,12,A
 18,9,D18,0\H,15,B19,12,A19,9,D19,0\C,18,B20,15,A20,12,D20,0\H,18,B21,1
 5,A21,12,D21,0\H,18,B22,15,A22,12,D22,0\C,21,B23,18,A23,15,D23,0\H,21,
 B24,18,A24,15,D24,0\H,21,B25,18,A25,15,D25,0\C,24,B26,21,A26,18,D26,0\
 H,24,B27,21,A27,18,D27,0\H,24,B28,21,A28,18,D28,0\C,27,B29,24,A29,21,D
 29,0\H,27,B30,24,A30,21,D30,0\H,27,B31,24,A31,21,D31,0\C,30,B32,27,A32
 ,24,D32,0\H,33,B33,30,A33,27,D33,0\H,33,B34,30,A34,27,D34,0\H,30,B35,2
 7,A35,24,D35,0\\B1=1.51591622\B2=1.10117868\A2=112.26587102\B3=1.10338
 418\A3=111.18877301\D3=239.57680607\B4=1.10337888\A4=111.19471902\D4=1
 20.43678807\B5=1.51876168\A5=113.11502143\D5=179.94318751\B6=1.1069069
 9\A6=110.00069812\D6=57.69463521\B7=1.1069154\A7=109.99965716\D7=302.1
 963814\B8=1.51752162\A8=113.77111679\D8=179.96342233\B9=1.10862672\A9=
 109.37161833\D9=57.3003451\B10=1.10862902\A10=109.36627299\D10=302.620
 88751\B11=1.51768671\A11=113.75301896\D11=179.93764763\B12=1.10845532\
 A12=109.39313017\D12=57.31116225\B13=1.10846554\A13=109.39210874\D13=3
 02.56766746\B14=1.51766979\A14=113.73711405\D14=179.96311965\B15=1.108
 41706\A15=109.39811238\D15=57.33285832\B16=1.10840949\A16=109.3954206\
 D16=302.58727533\B17=1.51769669\A17=113.72039791\D17=179.94022563\B18=
 1.10840435\A18=109.39540785\D18=57.32173478\B19=1.10842404\A19=109.395
 5217\D19=302.57355389\B20=1.51761849\A20=113.70972434\D20=179.98156439
 \B21=1.10839427\A21=109.39769428\D21=57.35364725\B22=1.10829017\A22=10
 9.40363043\D22=302.58962148\B23=1.51742661\A23=113.64286373\D23=179.98
 433405\B24=1.1083424\A24=109.40680068\D24=57.40161286\B25=1.10845709\A
 25=109.43686902\D25=302.60004275\B26=1.52360701\A26=113.38925963\D26=1
 80.28945523\B27=1.10813247\A27=109.476417\D27=57.81697535\B28=1.107262
 26\A28=109.73720175\D28=302.69286321\B29=1.49291377\A29=113.04888985\D
 29=181.57586992\B30=1.10633362\A30=109.88743042\D30=58.57581188\B31=1.
 10851621\A31=108.49268642\D31=303.14721957\B32=1.3322302\A32=125.40039
 189\D32=238.9482422\B33=1.09684312\A33=121.20546768\B34=1.09408538\A34
 =121.91772535\B35=1.10065334\A35=115.71760843\D35=58.40235081\D33=0.\D
 34=180.\\Version=ES64L-G09RevD.01\State=1-A\HF=-470.9793502\RMSD=3.945
 e-09\RMSF=1.055e-04\Dipole=0.1239815,-0.0600433,-0.1237987\Quadrupole=
 -0.118125,1.9450447,-1.8269198,0.701148,0.8822745,0.1315859\PG=C01 [X(
 C12H24)]\\@


 THE PROBLEM WITH THE LADDER OF SUCCESS IS YOU CAN'T
 CLIMB IT WHILE YOU'RE TWIDDLING YOUR THUMBS.
 Job cpu time:       0 days  2 hours  8 minutes 49.9 seconds.
 File lengths (MBytes):  RWF=     40 Int=      0 D2E=      0 Chk=     18 Scr=      1
 Normal termination of Gaussian 09 at Tue Oct 17 17:04:21 2017.
7431.00user 298.89system 17:26.12elapsed 738%CPU (0avgtext+0avgdata 7498620maxresident)k
328560inputs+715904outputs (223major+185355482minor)pagefaults 0swaps
