 Entering Gaussian System, Link 0=g09
 Initial command:
 /soft/gaussian/g09.d01_itasca/g09/l1.exe "/scratch/jgoodpas/2034001.node1081.localdomain/Gau-29956.inp" -scrdir="/scratch/jgoodpas/2034001.node1081.localdomain/"
 Entering Link 1 = /soft/gaussian/g09.d01_itasca/g09/l1.exe PID=     29957.
  
 Copyright (c) 1988,1990,1992,1993,1995,1998,2003,2009,2013,
            Gaussian, Inc.  All Rights Reserved.
  
 This is part of the Gaussian(R) 09 program.  It is based on
 the Gaussian(R) 03 system (copyright 2003, Gaussian, Inc.),
 the Gaussian(R) 98 system (copyright 1998, Gaussian, Inc.),
 the Gaussian(R) 94 system (copyright 1995, Gaussian, Inc.),
 the Gaussian 92(TM) system (copyright 1992, Gaussian, Inc.),
 the Gaussian 90(TM) system (copyright 1990, Gaussian, Inc.),
 the Gaussian 88(TM) system (copyright 1988, Gaussian, Inc.),
 the Gaussian 86(TM) system (copyright 1986, Carnegie Mellon
 University), and the Gaussian 82(TM) system (copyright 1983,
 Carnegie Mellon University). Gaussian is a federally registered
 trademark of Gaussian, Inc.
  
 This software contains proprietary and confidential information,
 including trade secrets, belonging to Gaussian, Inc.
  
 This software is provided under written license and may be
 used, copied, transmitted, or stored only in accord with that
 written license.
  
 The following legend is applicable only to US Government
 contracts under FAR:
  
                    RESTRICTED RIGHTS LEGEND
  
 Use, reproduction and disclosure by the US Government is
 subject to restrictions as set forth in subparagraphs (a)
 and (c) of the Commercial Computer Software - Restricted
 Rights clause in FAR 52.227-19.
  
 Gaussian, Inc.
 340 Quinnipiac St., Bldg. 40, Wallingford CT 06492
  
  
 ---------------------------------------------------------------
 Warning -- This program may not be used in any manner that
 competes with the business of Gaussian, Inc. or will provide
 assistance to any competitor of Gaussian, Inc.  The licensee
 of this program is prohibited from giving any competitor of
 Gaussian, Inc. access to this program.  By using this program,
 the user acknowledges that Gaussian, Inc. is engaged in the
 business of creating and licensing software in the field of
 computational chemistry and represents and warrants to the
 licensee that it is not a competitor of Gaussian, Inc. and that
 it will not use this program in any manner prohibited above.
 ---------------------------------------------------------------
  

 Cite this work as:
 Gaussian 09, Revision D.01,
 M. J. Frisch, G. W. Trucks, H. B. Schlegel, G. E. Scuseria, 
 M. A. Robb, J. R. Cheeseman, G. Scalmani, V. Barone, B. Mennucci, 
 G. A. Petersson, H. Nakatsuji, M. Caricato, X. Li, H. P. Hratchian, 
 A. F. Izmaylov, J. Bloino, G. Zheng, J. L. Sonnenberg, M. Hada, 
 M. Ehara, K. Toyota, R. Fukuda, J. Hasegawa, M. Ishida, T. Nakajima, 
 Y. Honda, O. Kitao, H. Nakai, T. Vreven, J. A. Montgomery, Jr., 
 J. E. Peralta, F. Ogliaro, M. Bearpark, J. J. Heyd, E. Brothers, 
 K. N. Kudin, V. N. Staroverov, T. Keith, R. Kobayashi, J. Normand, 
 K. Raghavachari, A. Rendell, J. C. Burant, S. S. Iyengar, J. Tomasi, 
 M. Cossi, N. Rega, J. M. Millam, M. Klene, J. E. Knox, J. B. Cross, 
 V. Bakken, C. Adamo, J. Jaramillo, R. Gomperts, R. E. Stratmann, 
 O. Yazyev, A. J. Austin, R. Cammi, C. Pomelli, J. W. Ochterski, 
 R. L. Martin, K. Morokuma, V. G. Zakrzewski, G. A. Voth, 
 P. Salvador, J. J. Dannenberg, S. Dapprich, A. D. Daniels, 
 O. Farkas, J. B. Foresman, J. V. Ortiz, J. Cioslowski, 
 and D. J. Fox, Gaussian, Inc., Wallingford CT, 2013.
 
 ******************************************
 Gaussian 09:  ES64L-G09RevD.01 24-Apr-2013
                17-Oct-2017 
 ******************************************
 %LindaWorkers=ic-node0198
 %Mem=11800mb
 %NProcShared=8
 Will use up to    8 processors via shared memory.
 %chk=dimer.chk
 SetLPE:  input flags=" -workerwait 250000 -opt "Tsnet.Node.lindarsharg: ssh " "
 SetLPE:    new flags=" -workerwait 250000 -opt "Tsnet.Node.lindarsharg: ssh "  -nodelist 'ic-node0198'"
 Will use up to    1 processors via Linda.
 -------------------------------------------------------------
 # Opt=(Z-mat,maxcycle=200) m06/def2svp Integral=SuperFineGrid
 -------------------------------------------------------------
 1/6=200,10=7,14=-1,18=40,26=5,38=1/1,3;
 2/12=2,17=6,18=5,29=3,40=1/2;
 3/5=43,7=101,11=2,16=1,25=1,30=1,71=1,74=-54,75=-7/1,2,3;
 4//1;
 5/5=2,38=5/2;
 6/7=2,8=2,9=2,10=2,28=1/1;
 7/29=1/1,2,3,16;
 1/6=200,10=7,14=-1,18=40,26=5/3(2);
 2/29=3/2;
 99//99;
 2/29=3/2;
 3/5=43,7=101,11=2,16=1,25=1,30=1,71=1,74=-54,75=-7/1,2,3;
 4/5=5,16=3,69=1/1;
 5/5=2,38=5/2;
 7//1,2,3,16;
 1/6=200,14=-1,18=40,26=5/3(-5);
 2/29=3/2;
 6/7=2,8=2,9=2,10=2,19=2,28=1/1;
 99/9=1/99;
 ------
 C12H24
 ------
 Symbolic Z-matrix:
 Charge =  0 Multiplicity = 1
 C
 C                    1    B1
 H                    1    B2       2    A2
 H                    1    B3       2    A3       3    D3       0
 H                    1    B4       2    A4       3    D4       0
 C                    2    B5       1    A5       3    D5       0
 H                    2    B6       1    A6       3    D6       0
 H                    2    B7       1    A7       3    D7       0
 C                    6    B8       2    A8       1    D8       0
 H                    6    B9       2    A9       1    D9       0
 H                    6    B10      2    A10      1    D10      0
 C                    9    B11      6    A11      2    D11      0
 H                    9    B12      6    A12      2    D12      0
 H                    9    B13      6    A13      2    D13      0
 C                    12   B14      9    A14      6    D14      0
 H                    12   B15      9    A15      6    D15      0
 H                    12   B16      9    A16      6    D16      0
 C                    15   B17      12   A17      9    D17      0
 H                    15   B18      12   A18      9    D18      0
 H                    15   B19      12   A19      9    D19      0
 C                    18   B20      15   A20      12   D20      0
 H                    18   B21      15   A21      12   D21      0
 H                    18   B22      15   A22      12   D22      0
 C                    21   B23      18   A23      15   D23      0
 H                    21   B24      18   A24      15   D24      0
 H                    21   B25      18   A25      15   D25      0
 C                    24   B26      21   A26      18   D26      0
 H                    24   B27      21   A27      18   D27      0
 H                    24   B28      21   A28      18   D28      0
 C                    27   B29      24   A29      21   D29      0
 H                    27   B30      24   A30      21   D30      0
 H                    27   B31      24   A31      21   D31      0
 C                    30   B32      27   A32      24   D32      0
 H                    33   B33      30   A33      27   D33      0
 H                    33   B34      30   A34      27   D34      0
 H                    30   B35      27   A35      24   D35      0
       Variables:
  B1                    1.52037                  
  B2                    1.09449                  
  A2                  110.2615                   
  B3                    1.09469                  
  A3                  110.99941                  
  D3                  240.2622                   
  B4                    1.09468                  
  A4                  111.00291                  
  D4                  119.74267                  
  B5                    1.52846                  
  A5                  111.49348                  
  D5                  180.02355                  
  B6                    1.09622                  
  A6                  109.14402                  
  D6                   58.466                    
  B7                    1.09622                  
  A7                  109.14651                  
  D7                  301.57536                  
  B8                    1.52957                  
  A8                  111.33085                  
  D8                  180.06732                  
  B9                    1.09685                  
  A9                  109.56808                  
  D9                   58.69294                  
  B10                   1.09685                  
  A10                 109.56982                  
  D10                 301.43153                  
  B11                   1.52959                  
  A11                 111.32932                  
  D11                 180.0495                   
  B12                   1.09682                  
  A12                 109.56214                  
  D12                  58.69169                  
  B13                   1.09682                  
  A13                 109.57144                  
  D13                 301.40424                  
  B14                   1.52958                  
  A14                 111.33412                  
  D14                 180.11548                  
  B15                   1.09681                  
  A15                 109.56324                  
  D15                  58.75236                  
  B16                   1.09681                  
  A16                 109.56894                  
  D16                 301.4668                   
  B17                   1.52958                  
  A17                 111.32441                  
  D17                 180.06818                  
  B18                   1.09681                  
  A18                 109.56207                  
  D18                  58.71257                  
  B19                   1.09681                  
  A19                 109.57415                  
  D19                 301.42268                  
  B20                   1.5296                   
  A20                 111.33392                  
  D20                 180.12584                  
  B21                   1.09681                  
  A21                 109.56096                  
  D21                  58.76319                  
  B22                   1.09681                  
  A22                 109.57002                  
  D22                 301.47796                  
  B23                   1.53006                  
  A23                 111.33208                  
  D23                 180.06793                  
  B24                   1.09681                  
  A24                 109.55355                  
  D24                  58.71484                  
  B25                   1.09681                  
  A25                 109.57481                  
  D25                 301.41764                  
  B26                   1.52997                  
  A26                 111.27387                  
  D26                 180.07455                  
  B27                   1.09745                  
  A27                 109.45602                  
  D27                  58.51678                  
  B28                   1.09744                  
  A28                 109.4982                   
  D28                 301.54273                  
  B29                   1.50175                  
  A29                 111.29171                  
  D29                 180.59371                  
  B30                   1.0969                   
  A30                 109.65896                  
  D30                  57.82495                  
  B31                   1.09657                  
  A31                 109.82846                  
  D31                 300.6713                   
  B32                   1.33889                  
  A32                 124.10415                  
  D32                 241.95558                  
  B33                   1.08555                  
  A33                 121.75919                  
  B34                   1.08571                  
  A34                 120.7488                   
  B35                   1.08828                  
  A35                 116.90896                  
  D35                  62.58421                  
       Constants:
  D33                  60.                       
  D34                 240.                       
 

 GradGradGradGradGradGradGradGradGradGradGradGradGradGradGradGradGradGrad
 Berny optimization.
 Initialization pass.
                       ----------------------------
                       !    Initial Parameters    !
                       ! (Angstroms and Degrees)  !
 ----------------------                            ----------------------
 !      Name          Value   Derivative information (Atomic Units)     !
 ------------------------------------------------------------------------
 !       B1          1.5204   estimate D2E/DX2                          !
 !       B2          1.0945   estimate D2E/DX2                          !
 !       A2        110.2615   estimate D2E/DX2                          !
 !       B3          1.0947   estimate D2E/DX2                          !
 !       A3        110.9994   estimate D2E/DX2                          !
 !       D3        240.2622   estimate D2E/DX2                          !
 !       B4          1.0947   estimate D2E/DX2                          !
 !       A4        111.0029   estimate D2E/DX2                          !
 !       D4        119.7427   estimate D2E/DX2                          !
 !       B5          1.5285   estimate D2E/DX2                          !
 !       A5        111.4935   estimate D2E/DX2                          !
 !       D5        180.0236   estimate D2E/DX2                          !
 !       B6          1.0962   estimate D2E/DX2                          !
 !       A6        109.144    estimate D2E/DX2                          !
 !       D6         58.466    estimate D2E/DX2                          !
 !       B7          1.0962   estimate D2E/DX2                          !
 !       A7        109.1465   estimate D2E/DX2                          !
 !       D7        301.5754   estimate D2E/DX2                          !
 !       B8          1.5296   estimate D2E/DX2                          !
 !       A8        111.3308   estimate D2E/DX2                          !
 !       D8        180.0673   estimate D2E/DX2                          !
 !       B9          1.0969   estimate D2E/DX2                          !
 !       A9        109.5681   estimate D2E/DX2                          !
 !       D9         58.6929   estimate D2E/DX2                          !
 !       B10         1.0969   estimate D2E/DX2                          !
 !       A10       109.5698   estimate D2E/DX2                          !
 !       D10       301.4315   estimate D2E/DX2                          !
 !       B11         1.5296   estimate D2E/DX2                          !
 !       A11       111.3293   estimate D2E/DX2                          !
 !       D11       180.0495   estimate D2E/DX2                          !
 !       B12         1.0968   estimate D2E/DX2                          !
 !       A12       109.5621   estimate D2E/DX2                          !
 !       D12        58.6917   estimate D2E/DX2                          !
 !       B13         1.0968   estimate D2E/DX2                          !
 !       A13       109.5714   estimate D2E/DX2                          !
 !       D13       301.4042   estimate D2E/DX2                          !
 !       B14         1.5296   estimate D2E/DX2                          !
 !       A14       111.3341   estimate D2E/DX2                          !
 !       D14       180.1155   estimate D2E/DX2                          !
 !       B15         1.0968   estimate D2E/DX2                          !
 !       A15       109.5632   estimate D2E/DX2                          !
 !       D15        58.7524   estimate D2E/DX2                          !
 !       B16         1.0968   estimate D2E/DX2                          !
 !       A16       109.5689   estimate D2E/DX2                          !
 !       D16       301.4668   estimate D2E/DX2                          !
 !       B17         1.5296   estimate D2E/DX2                          !
 !       A17       111.3244   estimate D2E/DX2                          !
 !       D17       180.0682   estimate D2E/DX2                          !
 !       B18         1.0968   estimate D2E/DX2                          !
 !       A18       109.5621   estimate D2E/DX2                          !
 !       D18        58.7126   estimate D2E/DX2                          !
 !       B19         1.0968   estimate D2E/DX2                          !
 !       A19       109.5742   estimate D2E/DX2                          !
 !       D19       301.4227   estimate D2E/DX2                          !
 !       B20         1.5296   estimate D2E/DX2                          !
 !       A20       111.3339   estimate D2E/DX2                          !
 !       D20       180.1258   estimate D2E/DX2                          !
 !       B21         1.0968   estimate D2E/DX2                          !
 !       A21       109.561    estimate D2E/DX2                          !
 !       D21        58.7632   estimate D2E/DX2                          !
 !       B22         1.0968   estimate D2E/DX2                          !
 !       A22       109.57     estimate D2E/DX2                          !
 !       D22       301.478    estimate D2E/DX2                          !
 !       B23         1.5301   estimate D2E/DX2                          !
 !       A23       111.3321   estimate D2E/DX2                          !
 !       D23       180.0679   estimate D2E/DX2                          !
 !       B24         1.0968   estimate D2E/DX2                          !
 !       A24       109.5536   estimate D2E/DX2                          !
 !       D24        58.7148   estimate D2E/DX2                          !
 !       B25         1.0968   estimate D2E/DX2                          !
 !       A25       109.5748   estimate D2E/DX2                          !
 !       D25       301.4176   estimate D2E/DX2                          !
 !       B26         1.53     estimate D2E/DX2                          !
 !       A26       111.2739   estimate D2E/DX2                          !
 !       D26       180.0745   estimate D2E/DX2                          !
 !       B27         1.0975   estimate D2E/DX2                          !
 !       A27       109.456    estimate D2E/DX2                          !
 !       D27        58.5168   estimate D2E/DX2                          !
 !       B28         1.0974   estimate D2E/DX2                          !
 !       A28       109.4982   estimate D2E/DX2                          !
 !       D28       301.5427   estimate D2E/DX2                          !
 !       B29         1.5018   estimate D2E/DX2                          !
 !       A29       111.2917   estimate D2E/DX2                          !
 !       D29       180.5937   estimate D2E/DX2                          !
 !       B30         1.0969   estimate D2E/DX2                          !
 !       A30       109.659    estimate D2E/DX2                          !
 !       D30        57.8249   estimate D2E/DX2                          !
 !       B31         1.0966   estimate D2E/DX2                          !
 !       A31       109.8285   estimate D2E/DX2                          !
 !       D31       300.6713   estimate D2E/DX2                          !
 !       B32         1.3389   estimate D2E/DX2                          !
 !       A32       124.1042   estimate D2E/DX2                          !
 !       D32       241.9556   estimate D2E/DX2                          !
 !       B33         1.0856   estimate D2E/DX2                          !
 !       A33       121.7592   estimate D2E/DX2                          !
 !       B34         1.0857   estimate D2E/DX2                          !
 !       A34       120.7488   estimate D2E/DX2                          !
 !       B35         1.0883   estimate D2E/DX2                          !
 !       A35       116.909    estimate D2E/DX2                          !
 !       D35        62.5842   estimate D2E/DX2                          !
 !       D33        60.0      Frozen                                    !
 !       D34       240.0      Frozen                                    !
 ------------------------------------------------------------------------
 Trust Radius=3.00D-01 FncErr=1.00D-07 GrdErr=1.00D-07
 Number of steps in this run=    200 maximum allowed number of steps=    204.
 GradGradGradGradGradGradGradGradGradGradGradGradGradGradGradGradGradGrad

 ---------------------------------------------------------------------------------------------------
                            Z-MATRIX (ANGSTROMS AND DEGREES)
   CD    Cent   Atom    N1       Length/X        N2       Alpha/Y        N3        Beta/Z          J
 ---------------------------------------------------------------------------------------------------
      1      1  C 
      2      2  C        1   1.520370(     1)
      3      3  H        1   1.094490(     2)      2  110.262(    36)
      4      4  H        1   1.094690(     3)      2  110.999(    37)      3  240.262(    70)      0
      5      5  H        1   1.094680(     4)      2  111.003(    38)      3  119.743(    71)      0
      6      6  C        2   1.528460(     5)      1  111.493(    39)      3  180.024(    72)      0
      7      7  H        2   1.096220(     6)      1  109.144(    40)      3   58.466(    73)      0
      8      8  H        2   1.096220(     7)      1  109.147(    41)      3  301.575(    74)      0
      9      9  C        6   1.529570(     8)      2  111.331(    42)      1  180.067(    75)      0
     10     10  H        6   1.096850(     9)      2  109.568(    43)      1   58.693(    76)      0
     11     11  H        6   1.096850(    10)      2  109.570(    44)      1  301.432(    77)      0
     12     12  C        9   1.529590(    11)      6  111.329(    45)      2  180.050(    78)      0
     13     13  H        9   1.096820(    12)      6  109.562(    46)      2   58.692(    79)      0
     14     14  H        9   1.096820(    13)      6  109.571(    47)      2  301.404(    80)      0
     15     15  C       12   1.529580(    14)      9  111.334(    48)      6  180.115(    81)      0
     16     16  H       12   1.096810(    15)      9  109.563(    49)      6   58.752(    82)      0
     17     17  H       12   1.096810(    16)      9  109.569(    50)      6  301.467(    83)      0
     18     18  C       15   1.529580(    17)     12  111.324(    51)      9  180.068(    84)      0
     19     19  H       15   1.096810(    18)     12  109.562(    52)      9   58.713(    85)      0
     20     20  H       15   1.096810(    19)     12  109.574(    53)      9  301.423(    86)      0
     21     21  C       18   1.529600(    20)     15  111.334(    54)     12  180.126(    87)      0
     22     22  H       18   1.096810(    21)     15  109.561(    55)     12   58.763(    88)      0
     23     23  H       18   1.096810(    22)     15  109.570(    56)     12  301.478(    89)      0
     24     24  C       21   1.530060(    23)     18  111.332(    57)     15  180.068(    90)      0
     25     25  H       21   1.096810(    24)     18  109.554(    58)     15   58.715(    91)      0
     26     26  H       21   1.096810(    25)     18  109.575(    59)     15  301.418(    92)      0
     27     27  C       24   1.529970(    26)     21  111.274(    60)     18  180.075(    93)      0
     28     28  H       24   1.097450(    27)     21  109.456(    61)     18   58.517(    94)      0
     29     29  H       24   1.097440(    28)     21  109.498(    62)     18  301.543(    95)      0
     30     30  C       27   1.501750(    29)     24  111.292(    63)     21  180.594(    96)      0
     31     31  H       27   1.096900(    30)     24  109.659(    64)     21   57.825(    97)      0
     32     32  H       27   1.096570(    31)     24  109.828(    65)     21  300.671(    98)      0
     33     33  C       30   1.338890(    32)     27  124.104(    66)     24  241.956(    99)      0
     34     34  H       33   1.085550(    33)     30  121.759(    67)     27   60.000(   100)      0
     35     35  H       33   1.085710(    34)     30  120.749(    68)     27  240.000(   101)      0
     36     36  H       30   1.088280(    35)     27  116.909(    69)     24   62.584(   102)      0
 ---------------------------------------------------------------------------------------------------
                         Z-Matrix orientation:                         
 ---------------------------------------------------------------------
 Center     Atomic      Atomic             Coordinates (Angstroms)
 Number     Number       Type             X           Y           Z
 ---------------------------------------------------------------------
      1          6           0        0.000000    0.000000    0.000000
      2          6           0        0.000000    0.000000    1.520370
      3          1           0        1.026765    0.000000   -0.379028
      4          1           0       -0.506937    0.887394   -0.392291
      5          1           0       -0.506996   -0.887322   -0.392350
      6          6           0       -1.422170   -0.000585    2.080391
      7          1           0        0.541621    0.882669    1.879869
      8          1           0        0.542250   -0.882265    1.879914
      9          6           0       -1.417829    0.001091    3.609954
     10          1           0       -1.960390   -0.883823    1.715305
     11          1           0       -1.961845    0.881033    1.713538
     12          6           0       -2.841064   -0.000725    4.170352
     13          1           0       -0.880476    0.884957    3.974709
     14          1           0       -0.877544   -0.880117    3.976802
     15          6           0       -2.836857    0.003823    5.699919
     16          1           0       -3.377699   -0.885606    3.807035
     17          1           0       -3.382035    0.879433    3.802024
     18          6           0       -4.260172    0.000310    6.260077
     19          1           0       -2.301279    0.889417    6.063059
     20          1           0       -2.294922   -0.875633    6.068507
     21          6           0       -4.256232    0.007986    7.789653
     22          1           0       -4.794941   -0.886396    5.898461
     23          1           0       -4.802856    0.878620    5.889863
     24          6           0       -5.680003    0.002782    8.349950
     25          1           0       -3.722490    0.895453    8.150919
     26          1           0       -3.712685   -0.869677    8.160135
     27          6           0       -5.674519    0.012323    9.879880
     28          1           0       -6.213070   -0.884521    7.985355
     29          1           0       -6.223979    0.879534    7.976089
     30          6           0       -7.071612   -0.007278   10.430335
     31          1           0       -5.128482    0.892261   10.241464
     32          1           0       -5.141577   -0.869376   10.255440
     33          6           0       -7.595135    0.967368   11.184400
     34          1           0       -7.686913    1.985521   10.819216
     35          1           0       -7.945260    0.762664   12.191512
     36          1           0       -7.679357   -0.880293   10.200458
 ---------------------------------------------------------------------
                    Distance matrix (angstroms):
                    1          2          3          4          5
     1  C    0.000000
     2  C    1.520370   0.000000
     3  H    1.094490   2.159157   0.000000
     4  H    1.094690   2.168577   1.771972   0.000000
     5  H    1.094680   2.168613   1.771988   1.774717   0.000000
     6  C    2.520038   1.528460   3.470738   2.782142   2.781779
     7  H    2.146244   1.096220   2.473274   2.502440   3.065199
     8  H    2.146276   1.096220   2.473047   3.065192   2.502823
     9  C    3.878402   2.525193   4.678463   4.199193   4.199682
    10  H    2.750735   2.159230   3.753727   3.113149   2.560191
    11  H    2.749776   2.159252   3.753244   2.559554   3.111018
    12  C    5.046135   3.885106   5.971344   5.201405   5.201170
    13  H    4.166137   2.753574   4.834847   4.382948   4.727755
    14  H    4.166491   2.752953   4.834693   4.727624   4.384843
    15  C    6.366856   5.051376   7.202859   6.582116   6.583171
    16  H    5.165913   4.173965   6.140580   5.386942   5.086823
    17  H    5.164005   4.173428   6.139390   5.085128   5.383311
    18  C    7.572162   6.372903   8.487015   7.689454   7.689539
    19  H    6.545810   5.169427   7.305301   6.700091   6.931707
    20  H    6.546768   5.169037   7.305548   6.931599   6.703692
    21  C    8.876613   7.577564   9.728179   9.042941   9.044530
    22  H    7.653038   6.553231   8.607254   7.817088   7.613197
    23  H    7.650482   6.552241   8.605547   7.610549   7.812756
    24  C   10.098718   8.882882  11.007988  10.196564  10.197063
    25  H    9.005346   7.656563   9.803941   9.128324   9.300814
    26  H    9.007118   7.656817   9.804898   9.300974   9.133551
    27  C   11.393522  10.103550  12.253675  11.532006  11.533922
    28  H   10.156304   9.010030  11.097769  10.290024  10.136332
    29  H   10.155269   9.010427  11.097515  10.134812  10.287684
    30  C   12.601572  11.375202  13.506520  12.689548  12.688545
    31  H   11.488475  10.156522  12.307642  11.594631  11.730433
    32  H   11.505028  10.173154  12.324616  11.744799  11.612713
    33  C   13.554065  12.329451  14.456342  13.574562  13.700465
    34  H   13.419626  12.226997  14.327287  13.358736  13.619973
    35  H   14.571952  13.325993  15.462773  14.618355  14.710670
    36  H   12.798312  11.622882  13.729421  12.914127  12.792592
                    6          7          8          9         10
     6  C    0.000000
     7  H    2.162596   0.000000
     8  H    2.162521   1.764935   0.000000
     9  C    1.529570   2.758590   2.759577   0.000000
    10  H    1.096850   3.067188   2.508049   2.160357   0.000000
    11  H    1.096850   2.508986   3.067147   2.160241   1.764858
    12  C    2.526103   4.179624   4.179717   1.529590   2.753671
    13  H    2.160106   2.531941   3.087943   1.096820   3.065894
    14  H    2.160225   3.085219   2.532343   1.096820   2.507378
    15  C    3.886174   5.174869   5.176481   2.526184   4.175316
    16  H    2.754752   4.711883   4.368044   2.160130   2.526678
    17  H    2.753093   4.369184   4.711486   2.160203   3.079698
    18  C    5.052132   6.559116   6.559576   3.886138   5.169685
    19  H    4.174516   5.057787   5.359405   2.754511   4.707818
    20  H    4.175222   5.355585   5.059042   2.753620   4.366045
    21  C    6.373983   7.662246   7.664398   5.052372   6.554687
    22  H    5.170871   6.910685   6.680894   4.174899   5.053066
    23  H    5.168570   6.681580   6.910178   4.174500   5.349089
    24  C    7.578689   9.019133   9.020039   6.374456   7.657682
    25  H    6.553295   7.583462   7.789339   5.170272   6.905647
    26  H    6.554775   7.785345   7.585896   5.169986   6.678816
    27  C    8.883393  10.168485  10.170937   7.578358   9.014328
    28  H    7.655238   9.275008   9.105535   6.551548   7.576200
    29  H    7.654491   9.106989   9.276268   6.552394   7.777212
    30  C   10.081558  11.483196  11.482430   8.859059  10.141236
    31  H    9.007611  10.102794  10.257762   7.651148   9.267507
    32  H    9.023315  10.272224  10.122030   7.667235   9.113400
    33  C   11.041984  12.360756  12.498466   9.821662  11.173228
    34  H   10.934290  12.199877  12.484168   9.757707  11.131370
    35  H   12.056867  13.355581  13.456325  10.808816  12.177048
    36  H   10.288916  11.828979  11.697277   9.133363  10.232518
                   11         12         13         14         15
    11  H    0.000000
    12  C    2.754352   0.000000
    13  H    2.506446   2.160234   0.000000
    14  H    3.065897   2.160139   1.765078   0.000000
    15  C    4.174491   1.529580   2.753212   2.754885   0.000000
    16  H    3.083567   1.096810   3.065801   2.505919   2.160233
    17  H    2.525611   1.096810   2.507518   3.065785   2.160074
    18  C    5.170010   2.526029   4.174668   4.175006   1.529580
    19  H    4.362754   2.160107   2.525848   3.083949   1.096810
    20  H    4.707714   2.160261   3.079663   2.526699   1.096810
    21  C    6.553289   3.886145   5.169004   5.171276   2.526189
    22  H    5.353860   2.754707   4.707605   4.363349   2.160092
    23  H    5.051043   2.752925   4.364965   4.707550   2.160208
    24  C    7.657544   5.052586   6.554115   6.554963   3.886662
    25  H    6.673826   4.174322   5.051523   5.354402   2.754406
    26  H    6.905725   4.175306   5.349574   5.053554   2.753678
    27  C    9.012644   6.373959   7.656068   7.658573   5.052175
    28  H    7.779832   5.167763   6.903107   6.673556   4.172671
    29  H    7.575310   5.167456   6.675634   6.904711   4.173777
    30  C   10.143045   7.555459   8.988957   8.987569   6.349024
    31  H    9.096881   6.548902   7.570854   7.775461   5.163962
    32  H    9.281094   6.563171   7.789881   7.589689   5.179477
    33  C   11.019920   8.528498   9.852567  10.024405   7.324559
    34  H   10.812478   8.463736   9.715251  10.069658   7.325119
    35  H   12.066615   9.538061  10.837065  10.960511   8.295324
    36  H   10.383642   7.781061   9.386205   9.219466   6.669807
                   16         17         18         19         20
    16  H    0.000000
    17  H    1.765051   0.000000
    18  C    2.753366   2.754271   0.000000
    19  H    3.065784   2.506075   2.160229   0.000000
    20  H    2.507341   3.065781   2.160135   1.765070   0.000000
    21  C    4.175114   4.174306   1.529600   2.753160   2.754971
    22  H    2.526388   3.083748   1.096810   3.065771   2.505818
    23  H    3.079243   2.525432   1.096810   2.507588   3.065787
    24  C    5.169905   5.170378   2.526558   4.175137   4.175568
    25  H    4.707482   4.362231   2.160015   2.525676   3.084013
    26  H    4.366000   4.707638   2.160287   3.079644   2.526855
    27  C    6.554472   6.553449   3.886321   5.168768   5.170755
    28  H    5.049524   5.350379   2.751966   4.705761   4.361911
    29  H    5.347714   5.049700   2.752139   4.364327   4.707119
    30  C    7.634432   7.637653   5.029443   6.529413   6.526588
    31  H    6.901300   6.672079   4.171449   5.045013   5.344912
    32  H    6.685317   6.913819   4.182840   5.360662   5.062992
    33  C    8.697460   8.500437   6.025457   7.366079   7.593502
    34  H    8.716845   8.306407   6.038987   7.268255   7.734921
    35  H    9.689111   9.550926   7.024456   8.332378   8.491262
    36  H    7.705852   7.905921   5.290831   7.012394   6.787134
                   21         22         23         24         25
    21  C    0.000000
    22  H    2.160262   0.000000
    23  H    2.160093   1.765055   0.000000
    24  C    1.530060   2.753865   2.754724   0.000000
    25  H    1.096810   3.065731   2.505963   2.160632   0.000000
    26  H    1.096810   2.507335   3.065803   2.160452   1.765182
    27  C    2.525986   4.175291   4.174985   1.529970   2.753114
    28  H    2.159649   2.523137   3.080334   1.097450   3.065731
    29  H    2.160181   3.078506   2.524268   1.097440   2.507641
    30  C    3.860025   5.147228   5.152471   2.502934   4.150575
    31  H    2.748480   4.704950   4.363789   2.161753   2.519365
    32  H    2.762916   4.370779   4.714709   2.163667   3.091510
    33  C    4.857262   6.262482   5.986387   3.554190   4.919812
    34  H    4.985827   6.389464   5.817348   3.749162   4.901500
    35  H    5.792653   7.228168   7.042651   4.523982   5.846008
    36  H    4.280048   5.179486   5.472593   2.863847   4.796945
                   26         27         28         29         30
    26  H    0.000000
    27  C    2.753949   0.000000
    28  H    2.506530   2.164161   0.000000
    29  H    3.065976   2.162957   1.764112   0.000000
    30  C    4.144867   1.501750   2.735795   2.743764   0.000000
    31  H    3.072595   1.096900   3.069742   2.516387   2.149557
    32  H    2.536145   1.096570   2.510302   3.070134   2.121046
    33  C    5.253030   2.510508   3.946326   3.490136   1.338890
    34  H    5.569323   2.970790   4.294197   3.383306   2.121573
    35  H    6.068873   3.326097   4.837919   4.554807   2.111355
    36  H    4.460663   2.217862   2.656445   3.187936   1.088280
                   31         32         33         34         35
    31  H    0.000000
    32  H    1.761741   0.000000
    33  C    2.641807   3.202584   0.000000
    34  H    2.841581   3.866137   1.085550   0.000000
    35  H    3.428370   3.777905   1.085710   1.856157   0.000000
    36  H    3.106541   2.538400   2.095015   2.931861   2.595055
                   36
    36  H    0.000000
 Stoichiometry    C12H24
 Framework group  C1[X(C12H24)]
 Deg. of freedom   102
 Full point group                 C1      NOp   1
 Largest Abelian subgroup         C1      NOp   1
 Largest concise Abelian subgroup C1      NOp   1
                         Standard orientation:                         
 ---------------------------------------------------------------------
 Center     Atomic      Atomic             Coordinates (Angstroms)
 Number     Number       Type             X           Y           Z
 ---------------------------------------------------------------------
      1          6           0       -6.772959   -0.426574    0.059216
      2          6           0       -5.523285    0.435277    0.143194
      3          1           0       -7.668517    0.192264    0.172898
      4          1           0       -6.780909   -1.184077    0.849452
      5          1           0       -6.833229   -0.937149   -0.907223
      6          6           0       -4.254074   -0.401935   -0.012910
      7          1           0       -5.509848    0.955992    1.107753
      8          1           0       -5.562186    1.202175   -0.639144
      9          6           0       -2.999263    0.468418    0.073803
     10          1           0       -4.274054   -0.922976   -0.977896
     11          1           0       -4.222664   -1.170796    0.768720
     12          6           0       -1.729172   -0.369273   -0.083639
     13          1           0       -2.979043    0.988481    1.039277
     14          1           0       -3.031011    1.237715   -0.707343
     15          6           0       -0.474197    0.500574    0.005899
     16          1           0       -1.748648   -0.887796   -1.049945
     17          1           0       -1.698281   -1.139819    0.696295
     18          6           0        0.795693   -0.337082   -0.153246
     19          1           0       -0.454244    1.018039    0.972762
     20          1           0       -0.505402    1.271952   -0.773199
     21          6           0        2.050918    0.532118   -0.060646
     22          1           0        0.776499   -0.852871   -1.121019
     23          1           0        0.825953   -1.109831    0.624531
     24          6           0        3.321131   -0.305595   -0.221517
     25          1           0        2.070431    1.046769    0.907727
     26          1           0        2.020406    1.305629   -0.837654
     27          6           0        4.575825    0.564801   -0.126848
     28          1           0        3.298504   -0.821608   -1.189822
     29          1           0        3.349083   -1.081243    0.554347
     30          6           0        5.822350   -0.254826   -0.299016
     31          1           0        4.588384    1.090663    0.835701
     32          1           0        4.555400    1.333142   -0.908961
     33          6           0        6.768657   -0.388105    0.638728
     34          1           0        6.550703   -0.811347    1.614321
     35          1           0        7.789572   -0.073002    0.445830
     36          1           0        5.953352   -0.757096   -1.255529
 ---------------------------------------------------------------------
 Rotational constants (GHZ):      6.3921717      0.1581455      0.1570067
 Standard basis: def2SVP (5D, 7F)
 There are   300 symmetry adapted cartesian basis functions of A   symmetry.
 There are   288 symmetry adapted basis functions of A   symmetry.
   288 basis functions,   468 primitive gaussians,   300 cartesian basis functions
    48 alpha electrons       48 beta electrons
       nuclear repulsion energy       654.7132778889 Hartrees.
 NAtoms=   36 NActive=   36 NUniq=   36 SFac= 1.00D+00 NAtFMM=   60 NAOKFM=F Big=F
 Integral buffers will be    131072 words long.
 Raffenetti 2 integral format.
 Two-electron integral symmetry is turned on.
 One-electron integrals computed using PRISM.
   1 Symmetry operations used in ECPInt.
 ECPInt:  NShTT=   10440 NPrTT=   35208 LenC2=    8762 LenP2D=   21890.
 LDataN:  DoStor=T MaxTD1= 4 Len=   56
 NBasis=   288 RedAO= T EigKep=  7.63D-04  NBF=   288
 NBsUse=   288 1.00D-06 EigRej= -1.00D+00 NBFU=   288
 ExpMin= 1.22D-01 ExpMax= 1.24D+03 ExpMxC= 1.86D+02 IAcc=3 IRadAn=         7 AccDes= 0.00D+00
 Harris functional with IExCor= 1009 and IRadAn=       7 diagonalized for initial guess.
 HarFok:  IExCor= 1009 AccDes= 0.00D+00 IRadAn=         7 IDoV= 1 UseB2=F ITyADJ=14
 ICtDFT=  3500011 ScaDFX=  1.000000  1.000000  1.000000  1.000000
 FoFCou: FMM=F IPFlag=           0 FMFlag=      100000 FMFlg1=           0
         NFxFlg=           0 DoJE=T BraDBF=F KetDBF=T FulRan=T
         wScrn=  0.000000 ICntrl=     500 IOpCl=  0 I1Cent=   200000004 NGrid=           0
         NMat0=    1 NMatS0=      1 NMatT0=    0 NMatD0=    1 NMtDS0=    0 NMtDT0=    0
 Petite list used in FoFCou.
 Keep R1 ints in memory in canonical form, NReq=879895090.
 Requested convergence on RMS density matrix=1.00D-08 within 128 cycles.
 Requested convergence on MAX density matrix=1.00D-06.
 Requested convergence on             energy=1.00D-06.
 No special actions if energy rises.
 Integral accuracy reduced to 1.0D-05 until final iterations.
 Initial convergence to 1.0D-05 achieved.  Increase integral accuracy.
 SCF Done:  E(RM06) =  -470.904528002     A.U. after   13 cycles
            NFock= 13  Conv=0.67D-08     -V/T= 2.0124

 **********************************************************************

            Population analysis using the SCF density.

 **********************************************************************

 Orbital symmetries:
       Occupied  (A) (A) (A) (A) (A) (A) (A) (A) (A) (A) (A) (A)
                 (A) (A) (A) (A) (A) (A) (A) (A) (A) (A) (A) (A)
                 (A) (A) (A) (A) (A) (A) (A) (A) (A) (A) (A) (A)
                 (A) (A) (A) (A) (A) (A) (A) (A) (A) (A) (A) (A)
       Virtual   (A) (A) (A) (A) (A) (A) (A) (A) (A) (A) (A) (A)
                 (A) (A) (A) (A) (A) (A) (A) (A) (A) (A) (A) (A)
                 (A) (A) (A) (A) (A) (A) (A) (A) (A) (A) (A) (A)
                 (A) (A) (A) (A) (A) (A) (A) (A) (A) (A) (A) (A)
                 (A) (A) (A) (A) (A) (A) (A) (A) (A) (A) (A) (A)
                 (A) (A) (A) (A) (A) (A) (A) (A) (A) (A) (A) (A)
                 (A) (A) (A) (A) (A) (A) (A) (A) (A) (A) (A) (A)
                 (A) (A) (A) (A) (A) (A) (A) (A) (A) (A) (A) (A)
                 (A) (A) (A) (A) (A) (A) (A) (A) (A) (A) (A) (A)
                 (A) (A) (A) (A) (A) (A) (A) (A) (A) (A) (A) (A)
                 (A) (A) (A) (A) (A) (A) (A) (A) (A) (A) (A) (A)
                 (A) (A) (A) (A) (A) (A) (A) (A) (A) (A) (A) (A)
                 (A) (A) (A) (A) (A) (A) (A) (A) (A) (A) (A) (A)
                 (A) (A) (A) (A) (A) (A) (A) (A) (A) (A) (A) (A)
                 (A) (A) (A) (A) (A) (A) (A) (A) (A) (A) (A) (A)
                 (A) (A) (A) (A) (A) (A) (A) (A) (A) (A) (A) (A)
                 (A) (A) (A) (A) (A) (A) (A) (A) (A) (A) (A) (A)
                 (A) (A) (A) (A) (A) (A) (A) (A) (A) (A) (A) (A)
                 (A) (A) (A) (A) (A) (A) (A) (A) (A) (A) (A) (A)
                 (A) (A) (A) (A) (A) (A) (A) (A) (A) (A) (A) (A)
 The electronic state is 1-A.
 Alpha  occ. eigenvalues --  -10.25063 -10.24654 -10.24050 -10.23843 -10.23755
 Alpha  occ. eigenvalues --  -10.23740 -10.23697 -10.23661 -10.23637 -10.23631
 Alpha  occ. eigenvalues --  -10.23364 -10.23201  -0.82209  -0.81064  -0.79063
 Alpha  occ. eigenvalues --   -0.76349  -0.73071  -0.69253  -0.64941  -0.60649
 Alpha  occ. eigenvalues --   -0.58421  -0.57693  -0.57493  -0.55189  -0.49731
 Alpha  occ. eigenvalues --   -0.48542  -0.46792  -0.45092  -0.44578  -0.43744
 Alpha  occ. eigenvalues --   -0.43537  -0.42027  -0.41377  -0.40350  -0.39217
 Alpha  occ. eigenvalues --   -0.38878  -0.37212  -0.36350  -0.35248  -0.35020
 Alpha  occ. eigenvalues --   -0.34352  -0.34053  -0.33587  -0.33394  -0.33047
 Alpha  occ. eigenvalues --   -0.32920  -0.30484  -0.20777
 Alpha virt. eigenvalues --   -0.03603   0.06297   0.07004   0.07988   0.08137
 Alpha virt. eigenvalues --    0.08766   0.09328   0.09731   0.10222   0.11379
 Alpha virt. eigenvalues --    0.11400   0.12736   0.13308   0.13933   0.14842
 Alpha virt. eigenvalues --    0.15480   0.15858   0.16141   0.16251   0.16918
 Alpha virt. eigenvalues --    0.17252   0.18036   0.18518   0.19523   0.19774
 Alpha virt. eigenvalues --    0.20449   0.20747   0.22665   0.23097   0.23654
 Alpha virt. eigenvalues --    0.25737   0.26525   0.28228   0.32088   0.33039
 Alpha virt. eigenvalues --    0.34920   0.38491   0.40775   0.41511   0.42209
 Alpha virt. eigenvalues --    0.42577   0.43289   0.43818   0.43913   0.45032
 Alpha virt. eigenvalues --    0.46237   0.48316   0.49228   0.50044   0.50767
 Alpha virt. eigenvalues --    0.52082   0.52572   0.53713   0.54309   0.58149
 Alpha virt. eigenvalues --    0.58817   0.61035   0.61177   0.61837   0.62053
 Alpha virt. eigenvalues --    0.62151   0.62581   0.62782   0.62937   0.63168
 Alpha virt. eigenvalues --    0.64013   0.64193   0.64619   0.65327   0.65775
 Alpha virt. eigenvalues --    0.65957   0.65992   0.66258   0.66848   0.67160
 Alpha virt. eigenvalues --    0.67275   0.67536   0.68463   0.68745   0.68956
 Alpha virt. eigenvalues --    0.69389   0.69903   0.70454   0.70945   0.70995
 Alpha virt. eigenvalues --    0.71662   0.71706   0.72106   0.72929   0.73232
 Alpha virt. eigenvalues --    0.75928   0.78443   0.82219   0.86250   0.87874
 Alpha virt. eigenvalues --    0.90766   0.94708   0.98322   0.98813   1.00563
 Alpha virt. eigenvalues --    1.01348   1.01928   1.02449   1.02995   1.03987
 Alpha virt. eigenvalues --    1.05568   1.07216   1.09420   1.17161   1.19082
 Alpha virt. eigenvalues --    1.22984   1.24285   1.26936   1.31536   1.31690
 Alpha virt. eigenvalues --    1.32902   1.33557   1.34679   1.35873   1.35996
 Alpha virt. eigenvalues --    1.37370   1.37838   1.38048   1.41741   1.44328
 Alpha virt. eigenvalues --    1.50893   1.52652   1.57391   1.58978   1.60953
 Alpha virt. eigenvalues --    1.65454   1.65771   1.66474   1.66611   1.69630
 Alpha virt. eigenvalues --    1.71469   1.72375   1.73540   1.74035   1.74133
 Alpha virt. eigenvalues --    1.74721   1.75522   1.75939   1.76614   1.77462
 Alpha virt. eigenvalues --    1.78223   1.78668   1.79165   1.79984   1.80285
 Alpha virt. eigenvalues --    1.80453   1.80751   1.82130   1.82248   1.82560
 Alpha virt. eigenvalues --    1.83173   1.84110   1.84445   1.85121   1.85727
 Alpha virt. eigenvalues --    1.87091   1.88384   1.89391   1.90585   1.91356
 Alpha virt. eigenvalues --    1.91537   1.92389   1.92672   1.93756   1.94589
 Alpha virt. eigenvalues --    1.96409   1.98679   2.00017   2.01163   2.03878
 Alpha virt. eigenvalues --    2.05983   2.06615   2.09606   2.10575   2.11547
 Alpha virt. eigenvalues --    2.14530   2.16559   2.20681   2.21216   2.22909
 Alpha virt. eigenvalues --    2.26533   2.28331   2.31361   2.33082   2.37039
 Alpha virt. eigenvalues --    2.38167   2.40203   2.41265   2.41672   2.41697
 Alpha virt. eigenvalues --    2.42407   2.43204   2.44720   2.45738   2.46858
 Alpha virt. eigenvalues --    2.49785   2.50938   2.51578   2.51930   2.56015
 Alpha virt. eigenvalues --    2.56763   2.57410   2.57532   2.59569   2.59834
 Alpha virt. eigenvalues --    2.60554   2.61737   2.64140   2.65344   2.70924
 Alpha virt. eigenvalues --    2.73606   2.74968   2.78758   2.82264   2.83331
 Alpha virt. eigenvalues --    2.83346   2.84464   2.85666   2.87348   2.89367
 Alpha virt. eigenvalues --    2.90743   2.91529   2.92435   2.92847   2.95555
 Alpha virt. eigenvalues --    2.97007   2.97922   2.99316   2.99767   3.01398
 Alpha virt. eigenvalues --    3.03006   3.04657   3.04985   3.07203   3.10677
          Condensed to atoms (all electrons):
               1          2          3          4          5          6
     1  C    4.571415   0.421764   0.377956   0.394066   0.394025  -0.058832
     2  C    0.421764   4.674081  -0.014015  -0.023346  -0.023341   0.398559
     3  H    0.377956  -0.014015   0.656495  -0.024838  -0.024842   0.008284
     4  H    0.394066  -0.023346  -0.024838   0.653224  -0.027915  -0.008668
     5  H    0.394025  -0.023341  -0.024842  -0.027915   0.653317  -0.008667
     6  C   -0.058832   0.398559   0.008284  -0.008668  -0.008667   4.752171
     7  H   -0.023838   0.375243  -0.006693  -0.010178   0.008805  -0.022823
     8  H   -0.023807   0.375170  -0.006705   0.008804  -0.010167  -0.022764
     9  C    0.009389  -0.046175  -0.000555   0.000467   0.000469   0.364208
    10  H   -0.004396  -0.027305  -0.000047  -0.001941   0.007553   0.374665
    11  H   -0.004379  -0.027365  -0.000045   0.007556  -0.001947   0.374795
    12  C   -0.000510   0.008366   0.000016  -0.000008  -0.000008  -0.043087
    13  H    0.000294  -0.006641   0.000008  -0.000053   0.000024  -0.022350
    14  H    0.000299  -0.006630   0.000008   0.000024  -0.000053  -0.022328
    15  C    0.000009  -0.000440   0.000000   0.000000   0.000000   0.008158
    16  H    0.000007   0.000318   0.000000   0.000004  -0.000010  -0.007045
    17  H    0.000007   0.000326   0.000000  -0.000010   0.000004  -0.007026
    18  C    0.000000   0.000008   0.000000   0.000000   0.000000  -0.000458
    19  H    0.000000   0.000003   0.000000   0.000000   0.000000   0.000376
    20  H    0.000000   0.000003   0.000000   0.000000   0.000000   0.000386
    21  C    0.000000   0.000000   0.000000   0.000000   0.000000   0.000008
    22  H    0.000000   0.000000   0.000000   0.000000   0.000000   0.000003
    23  H    0.000000   0.000000   0.000000   0.000000   0.000000   0.000004
    24  C    0.000000   0.000000   0.000000   0.000000   0.000000   0.000000
    25  H    0.000000   0.000000   0.000000   0.000000   0.000000   0.000000
    26  H    0.000000   0.000000   0.000000   0.000000   0.000000   0.000000
    27  C    0.000000   0.000000   0.000000   0.000000   0.000000   0.000000
    28  H    0.000000   0.000000   0.000000   0.000000   0.000000   0.000000
    29  H    0.000000   0.000000   0.000000   0.000000   0.000000   0.000000
    30  C    0.000000   0.000000   0.000000   0.000000   0.000000   0.000000
    31  H    0.000000   0.000000   0.000000   0.000000   0.000000   0.000000
    32  H    0.000000   0.000000   0.000000   0.000000   0.000000   0.000000
    33  C    0.000000   0.000000   0.000000   0.000000   0.000000   0.000000
    34  H    0.000000   0.000000   0.000000   0.000000   0.000000   0.000000
    35  H    0.000000   0.000000   0.000000   0.000000   0.000000   0.000000
    36  H    0.000000   0.000000   0.000000   0.000000   0.000000   0.000000
               7          8          9         10         11         12
     1  C   -0.023838  -0.023807   0.009389  -0.004396  -0.004379  -0.000510
     2  C    0.375243   0.375170  -0.046175  -0.027305  -0.027365   0.008366
     3  H   -0.006693  -0.006705  -0.000555  -0.000047  -0.000045   0.000016
     4  H   -0.010178   0.008804   0.000467  -0.001941   0.007556  -0.000008
     5  H    0.008805  -0.010167   0.000469   0.007553  -0.001947  -0.000008
     6  C   -0.022823  -0.022764   0.364208   0.374665   0.374795  -0.043087
     7  H    0.691042  -0.034884  -0.007349   0.009506  -0.011839   0.000362
     8  H   -0.034884   0.691124  -0.007366  -0.011879   0.009505   0.000357
     9  C   -0.007349  -0.007366   4.750098  -0.020957  -0.020973   0.363929
    10  H    0.009506  -0.011879  -0.020957   0.696385  -0.037168  -0.007311
    11  H   -0.011839   0.009505  -0.020973  -0.037168   0.696218  -0.007330
    12  C    0.000362   0.000357   0.363929  -0.007311  -0.007330   4.748334
    13  H    0.007903  -0.002031   0.372269   0.009445  -0.011955  -0.021271
    14  H   -0.002039   0.007902   0.372145  -0.011931   0.009446  -0.021193
    15  C    0.000004   0.000004  -0.044117   0.000436   0.000430   0.365942
    16  H    0.000015  -0.000040  -0.021652   0.007737  -0.002009   0.371733
    17  H   -0.000040   0.000015  -0.021714  -0.002021   0.007745   0.371892
    18  C    0.000000   0.000000   0.008362   0.000001   0.000001  -0.044976
    19  H   -0.000013   0.000005  -0.007124   0.000014  -0.000040  -0.021285
    20  H    0.000005  -0.000012  -0.007119  -0.000040   0.000014  -0.021247
    21  C    0.000000   0.000000  -0.000460   0.000000   0.000000   0.008354
    22  H    0.000000   0.000000   0.000392  -0.000012   0.000005  -0.007219
    23  H    0.000000   0.000000   0.000388   0.000005  -0.000012  -0.007063
    24  C    0.000000   0.000000   0.000008   0.000000   0.000000  -0.000442
    25  H    0.000000   0.000000   0.000004   0.000000   0.000000   0.000370
    26  H    0.000000   0.000000   0.000002   0.000000   0.000000   0.000400
    27  C    0.000000   0.000000   0.000000   0.000000   0.000000   0.000007
    28  H    0.000000   0.000000   0.000000   0.000000   0.000000   0.000002
    29  H    0.000000   0.000000   0.000000   0.000000   0.000000   0.000000
    30  C    0.000000   0.000000   0.000000   0.000000   0.000000   0.000000
    31  H    0.000000   0.000000   0.000000   0.000000   0.000000   0.000001
    32  H    0.000000   0.000000   0.000000   0.000000   0.000000   0.000000
    33  C    0.000000   0.000000   0.000000   0.000000   0.000000   0.000000
    34  H    0.000000   0.000000   0.000000   0.000000   0.000000   0.000000
    35  H    0.000000   0.000000   0.000000   0.000000   0.000000   0.000000
    36  H    0.000000   0.000000   0.000000   0.000000   0.000000   0.000000
              13         14         15         16         17         18
     1  C    0.000294   0.000299   0.000009   0.000007   0.000007   0.000000
     2  C   -0.006641  -0.006630  -0.000440   0.000318   0.000326   0.000008
     3  H    0.000008   0.000008   0.000000   0.000000   0.000000   0.000000
     4  H   -0.000053   0.000024   0.000000   0.000004  -0.000010   0.000000
     5  H    0.000024  -0.000053   0.000000  -0.000010   0.000004   0.000000
     6  C   -0.022350  -0.022328   0.008158  -0.007045  -0.007026  -0.000458
     7  H    0.007903  -0.002039   0.000004   0.000015  -0.000040   0.000000
     8  H   -0.002031   0.007902   0.000004  -0.000040   0.000015   0.000000
     9  C    0.372269   0.372145  -0.044117  -0.021652  -0.021714   0.008362
    10  H    0.009445  -0.011931   0.000436   0.007737  -0.002021   0.000001
    11  H   -0.011955   0.009446   0.000430  -0.002009   0.007745   0.000001
    12  C   -0.021271  -0.021193   0.365942   0.371733   0.371892  -0.044976
    13  H    0.696058  -0.036335  -0.007208   0.009384  -0.011862   0.000401
    14  H   -0.036335   0.696257  -0.007237  -0.011931   0.009381   0.000392
    15  C   -0.007208  -0.007237   4.747375  -0.021150  -0.021148   0.364096
    16  H    0.009384  -0.011931  -0.021150   0.696299  -0.036220  -0.007214
    17  H   -0.011862   0.009381  -0.021148  -0.036220   0.695968  -0.007239
    18  C    0.000401   0.000392   0.364096  -0.007214  -0.007239   4.749794
    19  H    0.007787  -0.001995   0.371686   0.009375  -0.011924  -0.021301
    20  H   -0.002008   0.007785   0.371560  -0.011897   0.009379  -0.021335
    21  C    0.000003   0.000003  -0.043472   0.000395   0.000394   0.360524
    22  H    0.000014  -0.000040  -0.020811   0.007794  -0.001992   0.371878
    23  H   -0.000040   0.000014  -0.021184  -0.002005   0.007791   0.372299
    24  C    0.000000   0.000000   0.007899   0.000004   0.000002  -0.040906
    25  H   -0.000012   0.000005  -0.006844   0.000014  -0.000039  -0.021392
    26  H    0.000005  -0.000012  -0.007270  -0.000040   0.000014  -0.020822
    27  C    0.000000   0.000000  -0.000431   0.000000   0.000000   0.008074
    28  H    0.000000   0.000000   0.000432  -0.000012   0.000005  -0.007102
    29  H    0.000000   0.000000   0.000371   0.000005  -0.000012  -0.006908
    30  C    0.000000   0.000000   0.000010   0.000000   0.000000  -0.000561
    31  H    0.000000   0.000000  -0.000011   0.000000   0.000000   0.000509
    32  H    0.000000   0.000000  -0.000011   0.000000   0.000000   0.000444
    33  C    0.000000   0.000000   0.000000   0.000000   0.000000   0.000016
    34  H    0.000000   0.000000   0.000000   0.000000   0.000000   0.000005
    35  H    0.000000   0.000000   0.000000   0.000000   0.000000   0.000000
    36  H    0.000000   0.000000  -0.000001   0.000000   0.000000   0.000030
              19         20         21         22         23         24
     1  C    0.000000   0.000000   0.000000   0.000000   0.000000   0.000000
     2  C    0.000003   0.000003   0.000000   0.000000   0.000000   0.000000
     3  H    0.000000   0.000000   0.000000   0.000000   0.000000   0.000000
     4  H    0.000000   0.000000   0.000000   0.000000   0.000000   0.000000
     5  H    0.000000   0.000000   0.000000   0.000000   0.000000   0.000000
     6  C    0.000376   0.000386   0.000008   0.000003   0.000004   0.000000
     7  H   -0.000013   0.000005   0.000000   0.000000   0.000000   0.000000
     8  H    0.000005  -0.000012   0.000000   0.000000   0.000000   0.000000
     9  C   -0.007124  -0.007119  -0.000460   0.000392   0.000388   0.000008
    10  H    0.000014  -0.000040   0.000000  -0.000012   0.000005   0.000000
    11  H   -0.000040   0.000014   0.000000   0.000005  -0.000012   0.000000
    12  C   -0.021285  -0.021247   0.008354  -0.007219  -0.007063  -0.000442
    13  H    0.007787  -0.002008   0.000003   0.000014  -0.000040   0.000000
    14  H   -0.001995   0.007785   0.000003  -0.000040   0.000014   0.000000
    15  C    0.371686   0.371560  -0.043472  -0.020811  -0.021184   0.007899
    16  H    0.009375  -0.011897   0.000395   0.007794  -0.002005   0.000004
    17  H   -0.011924   0.009379   0.000394  -0.001992   0.007791   0.000002
    18  C   -0.021301  -0.021335   0.360524   0.371878   0.372299  -0.040906
    19  H    0.695936  -0.036183  -0.007252   0.009365  -0.011849   0.000418
    20  H   -0.036183   0.696510  -0.007253  -0.011929   0.009360   0.000377
    21  C   -0.007252  -0.007253   4.770599  -0.021743  -0.021771   0.348051
    22  H    0.009365  -0.011929  -0.021743   0.695664  -0.036135  -0.007070
    23  H   -0.011849   0.009360  -0.021771  -0.036135   0.695064  -0.007136
    24  C    0.000418   0.000377   0.348051  -0.007070  -0.007136   4.796636
    25  H    0.007751  -0.002002   0.373770   0.009333  -0.011948  -0.023640
    26  H   -0.001983   0.007752   0.371216  -0.011824   0.009369  -0.022608
    27  C    0.000002   0.000005  -0.041179   0.000298   0.000344   0.356072
    28  H    0.000012  -0.000040  -0.019139   0.007670  -0.001946   0.373676
    29  H   -0.000037   0.000013  -0.024471  -0.001983   0.007579   0.381531
    30  C    0.000000   0.000000   0.010582   0.000019   0.000000  -0.067627
    31  H   -0.000012   0.000006  -0.007342   0.000013  -0.000018  -0.017928
    32  H    0.000005  -0.000010  -0.010582  -0.000042   0.000013  -0.013792
    33  C    0.000000   0.000000  -0.000796   0.000001  -0.000003   0.007171
    34  H    0.000000   0.000000  -0.000188   0.000000   0.000001   0.001400
    35  H    0.000000   0.000000   0.000033   0.000000   0.000000  -0.000452
    36  H    0.000000   0.000000  -0.000449  -0.000009   0.000005   0.001829
              25         26         27         28         29         30
     1  C    0.000000   0.000000   0.000000   0.000000   0.000000   0.000000
     2  C    0.000000   0.000000   0.000000   0.000000   0.000000   0.000000
     3  H    0.000000   0.000000   0.000000   0.000000   0.000000   0.000000
     4  H    0.000000   0.000000   0.000000   0.000000   0.000000   0.000000
     5  H    0.000000   0.000000   0.000000   0.000000   0.000000   0.000000
     6  C    0.000000   0.000000   0.000000   0.000000   0.000000   0.000000
     7  H    0.000000   0.000000   0.000000   0.000000   0.000000   0.000000
     8  H    0.000000   0.000000   0.000000   0.000000   0.000000   0.000000
     9  C    0.000004   0.000002   0.000000   0.000000   0.000000   0.000000
    10  H    0.000000   0.000000   0.000000   0.000000   0.000000   0.000000
    11  H    0.000000   0.000000   0.000000   0.000000   0.000000   0.000000
    12  C    0.000370   0.000400   0.000007   0.000002   0.000000   0.000000
    13  H   -0.000012   0.000005   0.000000   0.000000   0.000000   0.000000
    14  H    0.000005  -0.000012   0.000000   0.000000   0.000000   0.000000
    15  C   -0.006844  -0.007270  -0.000431   0.000432   0.000371   0.000010
    16  H    0.000014  -0.000040   0.000000  -0.000012   0.000005   0.000000
    17  H   -0.000039   0.000014   0.000000   0.000005  -0.000012   0.000000
    18  C   -0.021392  -0.020822   0.008074  -0.007102  -0.006908  -0.000561
    19  H    0.007751  -0.001983   0.000002   0.000012  -0.000037   0.000000
    20  H   -0.002002   0.007752   0.000005  -0.000040   0.000013   0.000000
    21  C    0.373770   0.371216  -0.041179  -0.019139  -0.024471   0.010582
    22  H    0.009333  -0.011824   0.000298   0.007670  -0.001983   0.000019
    23  H   -0.011948   0.009369   0.000344  -0.001946   0.007579   0.000000
    24  C   -0.023640  -0.022608   0.356072   0.373676   0.381531  -0.067627
    25  H    0.694426  -0.036428  -0.006673   0.009285  -0.011758   0.000345
    26  H   -0.036428   0.697647  -0.006321  -0.011964   0.009367   0.000446
    27  C   -0.006673  -0.006321   4.701929  -0.027094  -0.029441   0.394657
    28  H    0.009285  -0.011964  -0.027094   0.692778  -0.037157  -0.006515
    29  H   -0.011758   0.009367  -0.029441  -0.037157   0.687669   0.000409
    30  C    0.000345   0.000446   0.394657  -0.006515   0.000409   4.878626
    31  H    0.007245  -0.002045   0.373216   0.009242  -0.011640  -0.028074
    32  H   -0.001745   0.008192   0.372398  -0.011747   0.009177  -0.010065
    33  C    0.000026  -0.000023  -0.071772   0.000061  -0.000283   0.612326
    34  H   -0.000018   0.000003  -0.013734   0.000043   0.000537  -0.043960
    35  H    0.000001  -0.000001   0.009815  -0.000009  -0.000047  -0.023609
    36  H    0.000006  -0.000041  -0.049806   0.006374  -0.001906   0.384730
              31         32         33         34         35         36
     1  C    0.000000   0.000000   0.000000   0.000000   0.000000   0.000000
     2  C    0.000000   0.000000   0.000000   0.000000   0.000000   0.000000
     3  H    0.000000   0.000000   0.000000   0.000000   0.000000   0.000000
     4  H    0.000000   0.000000   0.000000   0.000000   0.000000   0.000000
     5  H    0.000000   0.000000   0.000000   0.000000   0.000000   0.000000
     6  C    0.000000   0.000000   0.000000   0.000000   0.000000   0.000000
     7  H    0.000000   0.000000   0.000000   0.000000   0.000000   0.000000
     8  H    0.000000   0.000000   0.000000   0.000000   0.000000   0.000000
     9  C    0.000000   0.000000   0.000000   0.000000   0.000000   0.000000
    10  H    0.000000   0.000000   0.000000   0.000000   0.000000   0.000000
    11  H    0.000000   0.000000   0.000000   0.000000   0.000000   0.000000
    12  C    0.000001   0.000000   0.000000   0.000000   0.000000   0.000000
    13  H    0.000000   0.000000   0.000000   0.000000   0.000000   0.000000
    14  H    0.000000   0.000000   0.000000   0.000000   0.000000   0.000000
    15  C   -0.000011  -0.000011   0.000000   0.000000   0.000000  -0.000001
    16  H    0.000000   0.000000   0.000000   0.000000   0.000000   0.000000
    17  H    0.000000   0.000000   0.000000   0.000000   0.000000   0.000000
    18  C    0.000509   0.000444   0.000016   0.000005   0.000000   0.000030
    19  H   -0.000012   0.000005   0.000000   0.000000   0.000000   0.000000
    20  H    0.000006  -0.000010   0.000000   0.000000   0.000000   0.000000
    21  C   -0.007342  -0.010582  -0.000796  -0.000188   0.000033  -0.000449
    22  H    0.000013  -0.000042   0.000001   0.000000   0.000000  -0.000009
    23  H   -0.000018   0.000013  -0.000003   0.000001   0.000000   0.000005
    24  C   -0.017928  -0.013792   0.007171   0.001400  -0.000452   0.001829
    25  H    0.007245  -0.001745   0.000026  -0.000018   0.000001   0.000006
    26  H   -0.002045   0.008192  -0.000023   0.000003  -0.000001  -0.000041
    27  C    0.373216   0.372398  -0.071772  -0.013734   0.009815  -0.049806
    28  H    0.009242  -0.011747   0.000061   0.000043  -0.000009   0.006374
    29  H   -0.011640   0.009177  -0.000283   0.000537  -0.000047  -0.001906
    30  C   -0.028074  -0.010065   0.612326  -0.043960  -0.023609   0.384730
    31  H    0.679643  -0.037237  -0.002234   0.004648  -0.000724   0.009179
    32  H   -0.037237   0.658243   0.000965  -0.000071  -0.000413  -0.010884
    33  C   -0.002234   0.000965   4.864113   0.396149   0.380915  -0.048102
    34  H    0.004648  -0.000071   0.396149   0.638528  -0.049976   0.010360
    35  H   -0.000724  -0.000413   0.380915  -0.049976   0.636018  -0.011868
    36  H    0.009179  -0.010884  -0.048102   0.010360  -0.011868   0.666799
 Mulliken charges:
               1
     1  C   -0.053468
     2  C   -0.078583
     3  H    0.034973
     4  H    0.032812
     5  H    0.032752
     6  C   -0.057571
     7  H    0.026810
     8  H    0.026768
     9  C   -0.036569
    10  H    0.019261
    11  H    0.019349
    12  C   -0.037114
    13  H    0.018172
    14  H    0.018063
    15  C   -0.037077
    16  H    0.018139
    17  H    0.018324
    18  C   -0.036620
    19  H    0.018260
    20  H    0.017923
    21  C   -0.037834
    22  H    0.018359
    23  H    0.018875
    24  C   -0.073471
    25  H    0.019919
    26  H    0.016970
    27  C    0.029637
    28  H    0.023143
    29  H    0.028986
    30  C   -0.101736
    31  H    0.023565
    32  H    0.047164
    33  C   -0.138527
    34  H    0.056274
    35  H    0.060319
    36  H    0.043754
 Sum of Mulliken charges =   0.00000
 Mulliken charges with hydrogens summed into heavy atoms:
               1
     1  C    0.047070
     2  C   -0.025005
     6  C   -0.018961
     9  C   -0.000335
    12  C   -0.000651
    15  C   -0.000894
    18  C    0.000614
    21  C   -0.000945
    24  C   -0.021343
    27  C    0.100365
    30  C   -0.057982
    33  C   -0.021934
 Electronic spatial extent (au):  <R**2>=           6922.4820
 Charge=              0.0000 electrons
 Dipole moment (field-independent basis, Debye):
    X=             -0.5466    Y=              0.1926    Z=             -0.2127  Tot=              0.6174
 Quadrupole moment (field-independent basis, Debye-Ang):
   XX=            -87.0530   YY=            -81.2036   ZZ=            -78.3420
   XY=              0.6324   XZ=             -1.0412   YZ=             -0.5570
 Traceless Quadrupole moment (field-independent basis, Debye-Ang):
   XX=             -4.8535   YY=              0.9959   ZZ=              3.8575
   XY=              0.6324   XZ=             -1.0412   YZ=             -0.5570
 Octapole moment (field-independent basis, Debye-Ang**2):
  XXX=            -38.5912  YYY=              1.4425  ZZZ=             -0.4045  XYY=             -4.1278
  XXY=             11.1338  XXZ=             -4.4085  XZZ=             -0.5733  YZZ=             -1.3927
  YYZ=             -0.3617  XYZ=             -1.3023
 Hexadecapole moment (field-independent basis, Debye-Ang**3):
 XXXX=          -9624.2404 YYYY=           -275.2529 ZZZZ=           -192.6160 XXXY=             27.9023
 XXXZ=            -19.3419 YYYX=              8.7101 YYYZ=             -3.3014 ZZZX=             -1.2925
 ZZZY=             -0.5956 XXYY=          -1621.5909 XXZZ=          -1544.4366 YYZZ=            -71.7736
 XXYZ=            -11.6682 YYXZ=             -2.5739 ZZXY=             -6.9808
 N-N= 6.547132778889D+02 E-N=-2.395735199117D+03  KE= 4.651327573184D+02
   1 Symmetry operations used in ECPInt.
 ECPInt:  NShTT=   10440 NPrTT=   35208 LenC2=    8762 LenP2D=   21890.
 LDataN:  DoStor=T MaxTD1= 5 Len=  102
 Calling FoFJK, ICntrl=      2127 FMM=F ISym2X=0 I1Cent= 0 IOpClX= 0 NMat=1 NMatS=1 NMatT=0.
 ***** Axes restored to original set *****
 -------------------------------------------------------------------
 Center     Atomic                   Forces (Hartrees/Bohr)
 Number     Number              X              Y              Z
 -------------------------------------------------------------------
      1        6           0.005903828    0.000007389    0.008758420
      2        6          -0.015550204   -0.000016070   -0.013129141
      3        1           0.003364055   -0.000001263   -0.004686682
      4        1          -0.002698564    0.003583735   -0.002779917
      5        1          -0.002700497   -0.003591586   -0.002780445
      6        6           0.021485495    0.000036701    0.014428204
      7        1           0.003037354    0.003846591    0.004287844
      8        1           0.003049585   -0.003840760    0.004284974
      9        6          -0.021520758   -0.000058386   -0.014647807
     10        1          -0.003901895   -0.004384513   -0.002727628
     11        1          -0.003906982    0.004369479   -0.002736030
     12        6           0.021622555    0.000098016    0.014608382
     13        1           0.003873766    0.004299961    0.002626565
     14        1           0.003902591   -0.004279378    0.002628636
     15        6          -0.021561139   -0.000096605   -0.014735356
     16        1          -0.003902376   -0.004322417   -0.002619960
     17        1          -0.003915496    0.004283924   -0.002642999
     18        6           0.021755298    0.000119772    0.014690510
     19        1           0.003868382    0.004321321    0.002635555
     20        1           0.003917547   -0.004282921    0.002649125
     21        6          -0.021572729   -0.000533761   -0.015658988
     22        1          -0.003868119   -0.004336419   -0.002615754
     23        1          -0.003907820    0.004271211   -0.002614112
     24        6           0.026070042   -0.002439703    0.007862225
     25        1           0.003776242    0.004359850    0.002691395
     26        1           0.004008569   -0.004428181    0.002729050
     27        6          -0.029669409    0.017350546   -0.039349599
     28        1          -0.003837972   -0.004174177   -0.002332732
     29        1          -0.003236616    0.003643943   -0.001151109
     30        6           0.021395603   -0.007595193   -0.003482779
     31        1           0.001223496    0.003790696    0.003012139
     32        1           0.000094396   -0.005226590    0.004148213
     33        6          -0.007699230    0.008459001    0.007968183
     34        1           0.032013747    0.018773756    0.011684983
     35        1          -0.038464566   -0.005812964   -0.003617160
     36        1           0.007551823   -0.026195007    0.022613796
 -------------------------------------------------------------------
 Cartesian Forces:  Max     0.039349599 RMS     0.011356206
 -----------------------------------------------------------------------------------------------
                       Internal Coordinate Forces (Hartree/Bohr or radian)
  Cent   Atom   N1       Length/X         N2         Alpha/Y        N3         Beta/Z          J
 -----------------------------------------------------------------------------------------------
      1  C 
      2  C        1   0.001489(     1)
      3  H        1   0.004779(     2)      2   0.006684(    36)
      4  H        1   0.005151(     3)      2   0.002070(    37)      3  -0.001092(    70)     0
      5  H        1   0.005159(     4)      2   0.002064(    38)      3   0.001087(    71)     0
      6  C        2  -0.002991(     5)      1   0.010419(    39)      3  -0.000007(    72)     0
      7  H        2   0.006004(     6)      1   0.005085(    40)      3  -0.001129(    73)     0
      8  H        2   0.006005(     7)      1   0.005077(    41)      3   0.001149(    74)     0
      9  C        6  -0.002943(     8)      2   0.011583(    42)      1  -0.000039(    75)     0
     10  H        6   0.006353(     9)      2   0.001111(    43)      1  -0.002174(    76)     0
     11  H        6   0.006349(    10)      2   0.001109(    44)      1   0.002175(    77)     0
     12  C        9  -0.002897(    11)      6   0.011729(    45)      2  -0.000019(    78)     0
     13  H        9   0.006236(    12)      6   0.001219(    46)      2  -0.002100(    79)     0
     14  H        9   0.006240(    13)      6   0.001198(    47)      2   0.002126(    80)     0
     15  C       12  -0.002895(    14)      9   0.011722(    48)      6  -0.000044(    81)     0
     16  H       12   0.006264(    15)      9   0.001273(    49)      6  -0.002100(    82)     0
     17  H       12   0.006256(    16)      9   0.001263(    50)      6   0.002097(    83)     0
     18  C       15  -0.002832(    17)     12   0.011788(    51)      9  -0.000025(    84)     0
     19  H       15   0.006251(    18)     12   0.001245(    52)      9  -0.002096(    85)     0
     20  H       15   0.006260(    19)     12   0.001210(    53)      9   0.002121(    86)     0
     21  C       18  -0.002904(    20)     15   0.011921(    54)     12   0.000028(    87)     0
     22  H       18   0.006254(    21)     15   0.001226(    55)     12  -0.002090(    88)     0
     23  H       18   0.006236(    22)     15   0.001277(    56)     12   0.002028(    89)     0
     24  C       21  -0.002372(    23)     18   0.012318(    57)     15  -0.000256(    90)     0
     25  H       21   0.006252(    24)     18   0.001387(    58)     15  -0.001932(    91)     0
     26  H       21   0.006452(    25)     18   0.001222(    59)     15   0.002096(    92)     0
     27  C       24   0.002951(    26)     21   0.014638(    60)     18   0.001808(    93)     0
     28  H       24   0.006014(    27)     21   0.001602(    61)     18  -0.001781(    94)     0
     29  H       24   0.004908(    28)     21   0.002068(    62)     18  -0.000033(    95)     0
     30  C       27  -0.000714(    29)     24   0.030771(    63)     21   0.004965(    96)     0
     31  H       27   0.004643(    30)     24   0.003254(    64)     21   0.001871(    97)     0
     32  H       27   0.005669(    31)     24   0.004831(    65)     21  -0.005143(    98)     0
     33  C       30   0.030157(    32)     27   0.002967(    66)     24  -0.068368(    99)     0
     34  H       33   0.010971(    33)     30   0.004717(    67)     27  -0.064988(   100)     0
     35  H       33   0.010145(    34)     30   0.008557(    68)     27  -0.066118(   101)     0
     36  H       30   0.012020(    35)     27  -0.008843(    69)     24   0.060591(   102)     0
 -----------------------------------------------------------------------------------------------
 Internal  Forces:  Max     0.068368403 RMS     0.014551562

 GradGradGradGradGradGradGradGradGradGradGradGradGradGradGradGradGradGrad
 Berny optimization.
 Search for a local minimum.
 Step number   1 out of a maximum of  200
 All quantities printed in internal units (Hartrees-Bohrs-Radians)
 Second derivative matrix not updated -- first step.
 ITU=  0
     Eigenvalues ---    0.01014   0.01016   0.01028   0.01028   0.01028
     Eigenvalues ---    0.01029   0.01039   0.01071   0.01312   0.01975
     Eigenvalues ---    0.08427   0.13370   0.15083   0.15094   0.15113
     Eigenvalues ---    0.15114   0.15115   0.15120   0.15129   0.15296
     Eigenvalues ---    0.15820   0.16000   0.17237   0.17292   0.17292
     Eigenvalues ---    0.17293   0.17293   0.17294   0.17306   0.17325
     Eigenvalues ---    0.17543   0.19881   0.20945   0.23861   0.29418
     Eigenvalues ---    0.29426   0.29460   0.29461   0.29462   0.29462
     Eigenvalues ---    0.29463   0.29566   0.30331   0.32194   0.33834
     Eigenvalues ---    0.33966   0.33967   0.34027   0.34033   0.34033
     Eigenvalues ---    0.34036   0.34036   0.34037   0.34037   0.34037
     Eigenvalues ---    0.34037   0.34037   0.34037   0.34037   0.34037
     Eigenvalues ---    0.34064   0.34104   0.34104   0.34276   0.34277
     Eigenvalues ---    0.34299   0.35012   0.35313   0.35332   0.36582
     Eigenvalues ---    0.36628   0.36659   0.36681   0.36682   0.36682
     Eigenvalues ---    0.36687   0.36695   0.37162   0.39241   0.39324
     Eigenvalues ---    0.39326   0.39326   0.39328   0.39329   0.39339
     Eigenvalues ---    0.39352   0.39416   0.39726   0.42862   0.42864
     Eigenvalues ---    0.42864   0.42864   0.42875   0.42885   0.42900
     Eigenvalues ---    0.42929   0.43149   0.48000   0.53122   0.57454
     Eigenvalues --- 1000.000001000.00000
 RFO step:  Lambda=-4.49776677D-02 EMin= 1.01396302D-02
 Linear search not attempted -- first point.
 Maximum step size (   0.300) exceeded in Quadratic search.
    -- Step size scaled by   0.721
 Variable       Old X    -DE/DX   Delta X   Delta X   Delta X     New X
                                 (Linear)    (Quad)   (Total)
    B1        2.87308   0.00149   0.00000   0.00308   0.00308   2.87617
    B2        2.06829   0.00478   0.00000   0.00888   0.00888   2.07717
    A2        1.92443   0.00668   0.00000   0.01856   0.01856   1.94299
    B3        2.06866   0.00515   0.00000   0.00958   0.00958   2.07824
    A3        1.93731   0.00207   0.00000   0.00086   0.00086   1.93817
    D3        4.19337  -0.00109   0.00000  -0.00513  -0.00513   4.18823
    B4        2.06865   0.00516   0.00000   0.00959   0.00959   2.07824
    A4        1.93737   0.00206   0.00000   0.00096   0.00096   1.93833
    D4        2.08990   0.00109   0.00000   0.00556   0.00556   2.09546
    B5        2.88837  -0.00299   0.00000  -0.00633  -0.00633   2.88204
    A5        1.94593   0.01042   0.00000   0.01850   0.01850   1.96443
    D5        3.14200  -0.00001   0.00000  -0.00279  -0.00279   3.13922
    B6        2.07156   0.00600   0.00000   0.01122   0.01122   2.08277
    A6        1.90492   0.00508   0.00000   0.00754   0.00754   1.91246
    D6        1.02042  -0.00113   0.00000  -0.00587  -0.00587   1.01455
    B7        2.07156   0.00601   0.00000   0.01122   0.01122   2.08277
    A7        1.90497   0.00508   0.00000   0.00748   0.00748   1.91244
    D7        5.26348   0.00115   0.00000   0.00193   0.00193   5.26542
    B8        2.89047  -0.00294   0.00000  -0.00625  -0.00625   2.88422
    A8        1.94309   0.01158   0.00000   0.02584   0.02584   1.96893
    D8        3.14277  -0.00004   0.00000  -0.00713  -0.00713   3.13563
    B9        2.07275   0.00635   0.00000   0.01189   0.01189   2.08464
    A9        1.91232   0.00111   0.00000  -0.00364  -0.00364   1.90868
    D9        1.02439  -0.00217   0.00000  -0.01343  -0.01343   1.01095
   B10        2.07275   0.00635   0.00000   0.01188   0.01188   2.08463
   A10        1.91235   0.00111   0.00000  -0.00254  -0.00254   1.90981
   D10        5.26097   0.00218   0.00000   0.00445   0.00445   5.26543
   B11        2.89051  -0.00290   0.00000  -0.00615  -0.00615   2.88435
   A11        1.94306   0.01173   0.00000   0.02510   0.02510   1.96816
   D11        3.14246  -0.00002   0.00000  -0.00268  -0.00268   3.13977
   B12        2.07269   0.00624   0.00000   0.01167   0.01167   2.08436
   A12        1.91222   0.00122   0.00000  -0.00268  -0.00268   1.90954
[...]
     5  H    0.008653  -0.009886   0.000443   0.007732  -0.001919  -0.000007
     6  C   -0.024696  -0.024681   0.366791   0.372512   0.372560  -0.039152
     7  H    0.692868  -0.036042  -0.007326   0.009828  -0.012008   0.000333
     8  H   -0.036042   0.692954  -0.007331  -0.012019   0.009828   0.000332
     9  C   -0.007326  -0.007331   4.747534  -0.021988  -0.021992   0.368722
    10  H    0.009828  -0.012019  -0.021988   0.700004  -0.038203  -0.007498
    11  H   -0.012008   0.009828  -0.021992  -0.038203   0.699883  -0.007498
    12  C    0.000333   0.000332   0.368722  -0.007498  -0.007498   4.743006
    13  H    0.008378  -0.002087   0.370137   0.009713  -0.012048  -0.022383
    14  H   -0.002090   0.008377   0.370069  -0.012046   0.009715  -0.022363
    15  C    0.000004   0.000004  -0.040833   0.000404   0.000404   0.372384
    16  H    0.000020  -0.000042  -0.022835   0.008133  -0.002027   0.369864
    17  H   -0.000042   0.000020  -0.022835  -0.002028   0.008133   0.369985
    18  C    0.000000   0.000000   0.007928   0.000001   0.000001  -0.042019
    19  H   -0.000011   0.000004  -0.007135   0.000018  -0.000041  -0.022519
    20  H    0.000004  -0.000011  -0.007150  -0.000041   0.000018  -0.022460
    21  C    0.000000   0.000000  -0.000408   0.000000   0.000000   0.007953
    22  H    0.000000   0.000000   0.000359  -0.000011   0.000005  -0.007225
    23  H    0.000000   0.000000   0.000352   0.000005  -0.000011  -0.007085
    24  C    0.000000   0.000000   0.000006   0.000000   0.000000  -0.000392
    25  H    0.000000   0.000000   0.000003   0.000000   0.000000   0.000350
    26  H    0.000000   0.000000   0.000002   0.000000   0.000000   0.000365
    27  C    0.000000   0.000000   0.000000   0.000000   0.000000   0.000006
    28  H    0.000000   0.000000   0.000000   0.000000   0.000000   0.000002
    29  H    0.000000   0.000000   0.000000   0.000000   0.000000   0.000000
    30  C    0.000000   0.000000   0.000000   0.000000   0.000000   0.000000
    31  H    0.000000   0.000000   0.000000   0.000000   0.000000   0.000000
    32  H    0.000000   0.000000   0.000000   0.000000   0.000000   0.000000
    33  C    0.000000   0.000000   0.000000   0.000000   0.000000   0.000000
    34  H    0.000000   0.000000   0.000000   0.000000   0.000000   0.000000
    35  H    0.000000   0.000000   0.000000   0.000000   0.000000   0.000000
    36  H    0.000000   0.000000   0.000000   0.000000   0.000000   0.000000
              13         14         15         16         17         18
     1  C    0.000271   0.000272   0.000007   0.000007   0.000007   0.000000
     2  C   -0.006704  -0.006701  -0.000377   0.000293   0.000294   0.000006
     3  H    0.000008   0.000008   0.000000   0.000000   0.000000   0.000000
     4  H   -0.000050   0.000025   0.000000   0.000003  -0.000009   0.000000
     5  H    0.000025  -0.000050   0.000000  -0.000009   0.000003   0.000000
     6  C   -0.023514  -0.023523   0.007667  -0.007076  -0.007069  -0.000400
     7  H    0.008378  -0.002090   0.000004   0.000020  -0.000042   0.000000
     8  H   -0.002087   0.008377   0.000004  -0.000042   0.000020   0.000000
     9  C    0.370137   0.370069  -0.040833  -0.022835  -0.022835   0.007928
    10  H    0.009713  -0.012046   0.000404   0.008133  -0.002028   0.000001
    11  H   -0.012048   0.009715   0.000404  -0.002027   0.008133   0.000001
    12  C   -0.022383  -0.022363   0.372384   0.369864   0.369985  -0.042019
    13  H    0.699448  -0.037460  -0.007286   0.009661  -0.012018   0.000365
    14  H   -0.037460   0.699637  -0.007308  -0.012032   0.009659   0.000365
    15  C   -0.007286  -0.007308   4.740093  -0.022343  -0.022382   0.372285
    16  H    0.009661  -0.012032  -0.022343   0.699154  -0.037334  -0.007286
    17  H   -0.012018   0.009659  -0.022382  -0.037334   0.698841  -0.007257
    18  C    0.000365   0.000365   0.372285  -0.007286  -0.007257   4.740629
    19  H    0.008184  -0.002024   0.369878   0.009651  -0.012041  -0.022614
    20  H   -0.002028   0.008190   0.369638  -0.012042   0.009655  -0.022536
    21  C    0.000003   0.000003  -0.041262   0.000368   0.000363   0.368680
    22  H    0.000019  -0.000040  -0.022091   0.008183  -0.002017   0.370002
    23  H   -0.000040   0.000019  -0.022232  -0.002019   0.008165   0.370128
    24  C    0.000000   0.000000   0.007669   0.000003   0.000003  -0.038380
    25  H   -0.000011   0.000005  -0.007335   0.000019  -0.000040  -0.021070
    26  H    0.000005  -0.000011  -0.006988  -0.000041   0.000019  -0.022798
    27  C    0.000000   0.000000  -0.000374   0.000000   0.000000   0.007408
    28  H    0.000000   0.000000   0.000355  -0.000011   0.000004  -0.006512
    29  H    0.000000   0.000000   0.000403   0.000004  -0.000011  -0.008049
    30  C    0.000000   0.000000   0.000006   0.000000   0.000000  -0.000354
    31  H    0.000000   0.000000   0.000001   0.000000   0.000000   0.000378
    32  H    0.000000   0.000000   0.000001   0.000000   0.000000   0.000266
    33  C    0.000000   0.000000   0.000000   0.000000   0.000000   0.000007
    34  H    0.000000   0.000000   0.000000   0.000000   0.000000   0.000000
    35  H    0.000000   0.000000   0.000000   0.000000   0.000000   0.000000
    36  H    0.000000   0.000000   0.000000   0.000000   0.000000   0.000005
              19         20         21         22         23         24
     1  C    0.000000   0.000000   0.000000   0.000000   0.000000   0.000000
     2  C    0.000003   0.000003   0.000000   0.000000   0.000000   0.000000
     3  H    0.000000   0.000000   0.000000   0.000000   0.000000   0.000000
     4  H    0.000000   0.000000   0.000000   0.000000   0.000000   0.000000
     5  H    0.000000   0.000000   0.000000   0.000000   0.000000   0.000000
     6  C    0.000348   0.000351   0.000006   0.000003   0.000004   0.000000
     7  H   -0.000011   0.000004   0.000000   0.000000   0.000000   0.000000
     8  H    0.000004  -0.000011   0.000000   0.000000   0.000000   0.000000
     9  C   -0.007135  -0.007150  -0.000408   0.000359   0.000352   0.000006
    10  H    0.000018  -0.000041   0.000000  -0.000011   0.000005   0.000000
    11  H   -0.000041   0.000018   0.000000   0.000005  -0.000011   0.000000
    12  C   -0.022519  -0.022460   0.007953  -0.007225  -0.007085  -0.000392
    13  H    0.008184  -0.002028   0.000003   0.000019  -0.000040   0.000000
    14  H   -0.002024   0.008190   0.000003  -0.000040   0.000019   0.000000
    15  C    0.369878   0.369638  -0.041262  -0.022091  -0.022232   0.007669
    16  H    0.009651  -0.012042   0.000368   0.008183  -0.002019   0.000003
    17  H   -0.012041   0.009655   0.000363  -0.002017   0.008165   0.000003
    18  C   -0.022614  -0.022536   0.368680   0.370002   0.370128  -0.038380
    19  H    0.699018  -0.037339  -0.007250   0.009629  -0.012016   0.000367
    20  H   -0.037339   0.699499  -0.007315  -0.012020   0.009619   0.000356
    21  C   -0.007250  -0.007315   4.762470  -0.022871  -0.022548   0.353430
    22  H    0.009629  -0.012020  -0.022871   0.697977  -0.037189  -0.007031
    23  H   -0.012016   0.009619  -0.022548  -0.037189   0.697384  -0.007252
    24  C    0.000367   0.000356   0.353430  -0.007031  -0.007252   4.799299
    25  H    0.008165  -0.002020   0.367303   0.009618  -0.012078  -0.021483
    26  H   -0.002017   0.008137   0.372195  -0.011976   0.009635  -0.026258
    27  C    0.000003   0.000001  -0.036602   0.000293   0.000332   0.352250
    28  H    0.000018  -0.000042  -0.024840   0.008078  -0.002015   0.374994
    29  H   -0.000037   0.000016  -0.018609  -0.001956   0.007905   0.368271
    30  C    0.000000   0.000000   0.007652   0.000015  -0.000005  -0.048768
    31  H   -0.000011   0.000004  -0.006959   0.000014  -0.000029  -0.016622
    32  H    0.000005  -0.000011  -0.007664  -0.000039   0.000020  -0.029682
    33  C    0.000000   0.000000  -0.000511   0.000000   0.000000   0.010136
    34  H    0.000000   0.000000  -0.000009   0.000000   0.000000   0.000233
    35  H    0.000000   0.000000   0.000017   0.000000   0.000000  -0.000347
    36  H    0.000000   0.000000   0.000143  -0.000017   0.000006  -0.007826
              25         26         27         28         29         30
     1  C    0.000000   0.000000   0.000000   0.000000   0.000000   0.000000
     2  C    0.000000   0.000000   0.000000   0.000000   0.000000   0.000000
     3  H    0.000000   0.000000   0.000000   0.000000   0.000000   0.000000
     4  H    0.000000   0.000000   0.000000   0.000000   0.000000   0.000000
     5  H    0.000000   0.000000   0.000000   0.000000   0.000000   0.000000
     6  C    0.000000   0.000000   0.000000   0.000000   0.000000   0.000000
     7  H    0.000000   0.000000   0.000000   0.000000   0.000000   0.000000
     8  H    0.000000   0.000000   0.000000   0.000000   0.000000   0.000000
     9  C    0.000003   0.000002   0.000000   0.000000   0.000000   0.000000
    10  H    0.000000   0.000000   0.000000   0.000000   0.000000   0.000000
    11  H    0.000000   0.000000   0.000000   0.000000   0.000000   0.000000
    12  C    0.000350   0.000365   0.000006   0.000002   0.000000   0.000000
    13  H   -0.000011   0.000005   0.000000   0.000000   0.000000   0.000000
    14  H    0.000005  -0.000011   0.000000   0.000000   0.000000   0.000000
    15  C   -0.007335  -0.006988  -0.000374   0.000355   0.000403   0.000006
    16  H    0.000019  -0.000041   0.000000  -0.000011   0.000004   0.000000
    17  H   -0.000040   0.000019   0.000000   0.000004  -0.000011   0.000000
    18  C   -0.021070  -0.022798   0.007408  -0.006512  -0.008049  -0.000354
    19  H    0.008165  -0.002017   0.000003   0.000018  -0.000037   0.000000
    20  H   -0.002020   0.008137   0.000001  -0.000042   0.000016   0.000000
    21  C    0.367303   0.372195  -0.036602  -0.024840  -0.018609   0.007652
    22  H    0.009618  -0.011976   0.000293   0.008078  -0.001956   0.000015
    23  H   -0.012078   0.009635   0.000332  -0.002015   0.007905  -0.000005
    24  C   -0.021483  -0.026258   0.352250   0.374994   0.368271  -0.048768
    25  H    0.697757  -0.037456  -0.006832   0.009530  -0.011950   0.000285
    26  H   -0.037456   0.699645  -0.006239  -0.011837   0.009596   0.000320
    27  C   -0.006832  -0.006239   4.717080  -0.028116  -0.022791   0.401583
    28  H    0.009530  -0.011837  -0.028116   0.693616  -0.036746  -0.008480
    29  H   -0.011950   0.009596  -0.022791  -0.036746   0.687467   0.000320
    30  C    0.000285   0.000320   0.401583  -0.008480   0.000320   4.790287
    31  H    0.007511  -0.002083   0.358813   0.009416  -0.012598  -0.033593
    32  H   -0.001960   0.009116   0.387907  -0.011202   0.009614  -0.009605
    33  C    0.000035  -0.000020  -0.062392   0.000674  -0.000095   0.654213
    34  H   -0.000002   0.000000  -0.010122   0.000049  -0.000073  -0.036588
    35  H    0.000000   0.000000   0.007481  -0.000046   0.000019  -0.006879
    36  H    0.000031  -0.000092  -0.051427   0.011190  -0.002425   0.357354
              31         32         33         34         35         36
     1  C    0.000000   0.000000   0.000000   0.000000   0.000000   0.000000
     2  C    0.000000   0.000000   0.000000   0.000000   0.000000   0.000000
     3  H    0.000000   0.000000   0.000000   0.000000   0.000000   0.000000
     4  H    0.000000   0.000000   0.000000   0.000000   0.000000   0.000000
     5  H    0.000000   0.000000   0.000000   0.000000   0.000000   0.000000
     6  C    0.000000   0.000000   0.000000   0.000000   0.000000   0.000000
     7  H    0.000000   0.000000   0.000000   0.000000   0.000000   0.000000
     8  H    0.000000   0.000000   0.000000   0.000000   0.000000   0.000000
     9  C    0.000000   0.000000   0.000000   0.000000   0.000000   0.000000
    10  H    0.000000   0.000000   0.000000   0.000000   0.000000   0.000000
    11  H    0.000000   0.000000   0.000000   0.000000   0.000000   0.000000
    12  C    0.000000   0.000000   0.000000   0.000000   0.000000   0.000000
    13  H    0.000000   0.000000   0.000000   0.000000   0.000000   0.000000
    14  H    0.000000   0.000000   0.000000   0.000000   0.000000   0.000000
    15  C    0.000001   0.000001   0.000000   0.000000   0.000000   0.000000
    16  H    0.000000   0.000000   0.000000   0.000000   0.000000   0.000000
    17  H    0.000000   0.000000   0.000000   0.000000   0.000000   0.000000
    18  C    0.000378   0.000266   0.000007   0.000000   0.000000   0.000005
    19  H   -0.000011   0.000005   0.000000   0.000000   0.000000   0.000000
    20  H    0.000004  -0.000011   0.000000   0.000000   0.000000   0.000000
    21  C   -0.006959  -0.007664  -0.000511  -0.000009   0.000017   0.000143
    22  H    0.000014  -0.000039   0.000000   0.000000   0.000000  -0.000017
    23  H   -0.000029   0.000020   0.000000   0.000000   0.000000   0.000006
    24  C   -0.016622  -0.029682   0.010136   0.000233  -0.000347  -0.007826
    25  H    0.007511  -0.001960   0.000035  -0.000002   0.000000   0.000031
    26  H   -0.002083   0.009116  -0.000020   0.000000   0.000000  -0.000092
    27  C    0.358813   0.387907  -0.062392  -0.010122   0.007481  -0.051427
    28  H    0.009416  -0.011202   0.000674   0.000049  -0.000046   0.011190
    29  H   -0.012598   0.009614  -0.000095  -0.000073   0.000019  -0.002425
    30  C   -0.033593  -0.009605   0.654213  -0.036588  -0.006879   0.357354
    31  H    0.686861  -0.035972  -0.000377   0.005584  -0.000844   0.011556
    32  H   -0.035972   0.666140  -0.013036  -0.000849   0.000459  -0.014942
    33  C   -0.000377  -0.013036   4.802465   0.388749   0.378322  -0.035043
    34  H    0.005584  -0.000849   0.388749   0.640105  -0.049604   0.011442
    35  H   -0.000844   0.000459   0.378322  -0.049604   0.639128  -0.025237
    36  H    0.011556  -0.014942  -0.035043   0.011442  -0.025237   0.726047
 Mulliken charges:
               1
     1  C   -0.062152
     2  C   -0.077765
     3  H    0.039266
     4  H    0.035143
     5  H    0.035092
     6  C   -0.062635
     7  H    0.028173
     8  H    0.028121
     9  C   -0.039850
    10  H    0.020388
    11  H    0.020468
    12  C   -0.039992
    13  H    0.019414
    14  H    0.019304
    15  C   -0.040392
    16  H    0.019732
    17  H    0.019930
    18  C   -0.039177
    19  H    0.019765
    20  H    0.019521
    21  C   -0.043738
    22  H    0.020286
    23  H    0.020945
    24  C   -0.062976
    25  H    0.021625
    26  H    0.018780
    27  C   -0.008262
    28  H    0.021920
    29  H    0.031723
    30  C   -0.067764
    31  H    0.028951
    32  H    0.051433
    33  C   -0.123127
    34  H    0.051085
    35  H    0.057532
    36  H    0.019234
 Sum of Mulliken charges =   0.00000
 Mulliken charges with hydrogens summed into heavy atoms:
               1
     1  C    0.047348
     2  C   -0.021471
     6  C   -0.021779
     9  C   -0.001131
    12  C   -0.000330
    15  C   -0.001105
    18  C    0.002054
    21  C   -0.003333
    24  C   -0.009333
    27  C    0.072121
    30  C   -0.048531
    33  C   -0.014510
 Electronic spatial extent (au):  <R**2>=           7134.7604
 Charge=              0.0000 electrons
 Dipole moment (field-independent basis, Debye):
    X=             -0.4530    Y=              0.4022    Z=             -0.3239  Tot=              0.6870
 Quadrupole moment (field-independent basis, Debye-Ang):
   XX=            -83.9994   YY=            -81.8726   ZZ=            -78.9136
   XY=              2.2987   XZ=             -2.0438   YZ=              0.7465
 Traceless Quadrupole moment (field-independent basis, Debye-Ang):
   XX=             -2.4042   YY=             -0.2774   ZZ=              2.6816
   XY=              2.2987   XZ=             -2.0438   YZ=              0.7465
 Octapole moment (field-independent basis, Debye-Ang**2):
  XXX=            -18.1839  YYY=              1.1226  ZZZ=             -0.2970  XYY=             -7.1642
  XXY=             19.7465  XXZ=            -13.5898  XZZ=              0.9948  YZZ=              0.3970
  YYZ=             -0.6110  XYZ=              3.9351
 Hexadecapole moment (field-independent basis, Debye-Ang**3):
 XXXX=          -9656.2773 YYYY=           -267.1834 ZZZZ=           -166.1265 XXXY=             96.4228
 XXXZ=            -89.8336 YYYX=              6.8732 YYYZ=              2.4011 ZZZX=             -2.7547
 ZZZY=             -0.1163 XXYY=          -1696.8930 XXZZ=          -1589.5546 YYZZ=            -67.4060
 XXYZ=             30.5753 YYXZ=             -3.2175 ZZXY=              5.2540
 N-N= 6.504950704098D+02 E-N=-2.386976216782D+03  KE= 4.648608536634D+02
 1\1\GINC-NODE0198\POpt\RM06\def2SVP\C12H24\JGOODPAS\17-Oct-2017\1\\# O
 pt=(Z-mat,maxcycle=200) m06/def2svp Integral=SuperFineGrid\\C12H24\\0,
 1\C\C,1,B1\H,1,B2,2,A2\H,1,B3,2,A3,3,D3,0\H,1,B4,2,A4,3,D4,0\C,2,B5,1,
 A5,3,D5,0\H,2,B6,1,A6,3,D6,0\H,2,B7,1,A7,3,D7,0\C,6,B8,2,A8,1,D8,0\H,6
 ,B9,2,A9,1,D9,0\H,6,B10,2,A10,1,D10,0\C,9,B11,6,A11,2,D11,0\H,9,B12,6,
 A12,2,D12,0\H,9,B13,6,A13,2,D13,0\C,12,B14,9,A14,6,D14,0\H,12,B15,9,A1
 5,6,D15,0\H,12,B16,9,A16,6,D16,0\C,15,B17,12,A17,9,D17,0\H,15,B18,12,A
 18,9,D18,0\H,15,B19,12,A19,9,D19,0\C,18,B20,15,A20,12,D20,0\H,18,B21,1
 5,A21,12,D21,0\H,18,B22,15,A22,12,D22,0\C,21,B23,18,A23,15,D23,0\H,21,
 B24,18,A24,15,D24,0\H,21,B25,18,A25,15,D25,0\C,24,B26,21,A26,18,D26,0\
 H,24,B27,21,A27,18,D27,0\H,24,B28,21,A28,18,D28,0\C,27,B29,24,A29,21,D
 29,0\H,27,B30,24,A30,21,D30,0\H,27,B31,24,A31,21,D31,0\C,30,B32,27,A32
 ,24,D32,0\H,33,B33,30,A33,27,D33,0\H,33,B34,30,A34,27,D34,0\H,30,B35,2
 7,A35,24,D35,0\\B1=1.51594307\B2=1.1011804\A2=112.26470614\B3=1.103380
 76\A3=111.19019386\D3=239.57022894\B4=1.10338785\A4=111.19032346\D4=12
 0.43048561\B5=1.51872263\A5=113.10906871\D5=180.01228012\B6=1.10691521
 \A6=110.00106492\D6=57.76633207\B7=1.10691578\A7=110.00109592\D7=302.2
 6008946\B8=1.51748739\A8=113.76617728\D8=180.0234089\B9=1.1086328\A9=1
 09.37122321\D9=57.36141997\B10=1.10862918\A10=109.36561786\D10=302.675
 25256\B11=1.517632\A11=113.74445665\D11=180.00361872\B12=1.10846334\A1
 2=109.39142064\D12=57.37912995\B13=1.10847106\A13=109.39004335\D13=302
 .62843366\B14=1.51761034\A14=113.72971849\D14=180.02251674\B15=1.10842
 363\A15=109.3981719\D15=57.3943716\B16=1.10841127\A16=109.39422724\D16
 =302.64123969\B17=1.51759807\A17=113.7123583\D17=180.01575044\B18=1.10
 841429\A18=109.39511881\D18=57.3952872\B19=1.10844139\A19=109.3916233\
 D19=302.64044802\B20=1.51757246\A20=113.71444606\D20=180.04574885\B21=
 1.1083768\A21=109.40474893\D21=57.41349095\B22=1.10832225\A22=109.4010
 8103\D22=302.64460464\B23=1.5174427\A23=113.67561252\D23=180.00448084\
 B24=1.10833242\A24=109.38346164\D24=57.35220772\B25=1.10868942\A25=109
 .36701087\D25=302.60701956\B26=1.51904023\A26=113.27525882\D26=179.457
 85103\B27=1.10835463\A27=109.46542982\D27=57.24593423\B28=1.10672593\A
 28=109.61081199\D28=302.14415603\B29=1.50482271\A29=115.34775835\D29=1
 87.32695562\B30=1.1083897\A30=109.8591771\D30=58.88463678\B31=1.106549
 22\A31=109.22203478\D31=303.61019527\B32=1.34449851\A32=131.54537377\D
 32=193.28163481\B33=1.09985774\A33=123.10343109\B34=1.09592921\A34=121
 .07423702\B35=1.11157811\A35=105.21730196\D35=57.1297707\D33=60.\D34=2
 40.\\Version=ES64L-G09RevD.01\State=1-A\HF=-470.9409242\RMSD=8.386e-09
 \RMSF=6.956e-03\Dipole=0.2408446,-0.109216,-0.0558373\Quadrupole=-2.45
 90808,2.1025925,0.3564883,0.973567,1.4290721,-0.9254835\PG=C01 [X(C12H
 24)]\\@


 ALL PAPERS THAT YOU SAVE WILL NEVER BE NEEDED UNTIL
 SUCH TIME AS THEY ARE DISPOSED OF, WHEN THEY BECOME
 ESSENTIAL.

           -- JOHN CORCORAN IN
              PAUL DICKSON'S "THE OFFICIAL RULES"
 Job cpu time:       0 days  3 hours 20 minutes 15.7 seconds.
 File lengths (MBytes):  RWF=     40 Int=      0 D2E=      0 Chk=     17 Scr=      1
 Normal termination of Gaussian 09 at Tue Oct 17 17:16:16 2017.
11556.45user 459.32system 27:15.00elapsed 734%CPU (0avgtext+0avgdata 7496436maxresident)k
325512inputs+1117608outputs (222major+292321425minor)pagefaults 0swaps
